Siesta Version  : 5.0.0-alpha-123-gfb8fd7d02
Architecture    : ----
Compiler version: GNU-11.4.0
Compiler flags  : -fallow-argument-mismatch;-O3 -march=native
PP flags        : ----
Libraries       : ----
Parallelisations: none
GEMM3M support
NetCDF support
NetCDF-4 support
Lua support

Runtime information:
* Directory : /home/fnpedron/Siesta/siesta-dev/Tests/11.ElectronicProperties/work/charge_sp
* Running in serial mode.
>> Start of run:  28-SEP-2023  15:38:46

                           *********************** 
                           *  WELCOME TO SIESTA  * 
                           *********************** 

reinit: Reading from standard input
reinit: Dumping input in INPUT_TMP.20573
************************** Dump of input data file ****************************
%include ../../basejob.fdf
SystemLabel     charge_sp
Spin non-collinear
WriteHirshfeldPop T
WriteVoronoiPop   T
WriteMullikenPop  1
Save-Bader-Charge T
************************** End of input data file *****************************

reinit: -----------------------------------------------------------------------
reinit: System Name: FeN in ZB structure
reinit: -----------------------------------------------------------------------
reinit: System Label: charge_sp
reinit: -----------------------------------------------------------------------

initatom: Reading input for the pseudopotentials and atomic orbitals ----------
Species number:   1 Atomic number:   26 Label: Fe
Species number:   2 Atomic number:    7 Label: N


---- Processing specs for species: Fe
Ground state valence configuration:   4s02  3d06
Reading pseudopotential information in formatted form from:
  /home/fnpedron/Siesta/siesta-dev/Tests/Pseudos/Fe.psf

---- Processing specs for species: N
Ground state valence configuration:   2s02  2p03
Reading pseudopotential information in formatted form from:
  /home/fnpedron/Siesta/siesta-dev/Tests/Pseudos/N.psf

---- Pseudopotential check for Fe

Pseudopotential generated from a fully relativistic atomic calculation
There are spin-orbit semi-local pseudopotentials available

Pseudized shells:
4s( 2.00) rc: 2.00
4p( 0.00) rc: 2.00
3d( 6.00) rc: 2.00
4f( 0.00) rc: 2.00
Valence configuration for ps generation: (assumed as above)

---- Pseudopotential check for N 

Pseudized shells:
2s( 2.00) rc: 1.14
2p( 3.00) rc: 1.14
3d( 0.00) rc: 1.14
4f( 0.00) rc: 1.14
Valence configuration for ps generation: (assumed as above)
For Fe, standard SIESTA heuristics set lmxkb to 3
 (one more than the basis l, including polarization orbitals).
Use PS.lmax or PS.KBprojectors blocks to override.
For N, standard SIESTA heuristics set lmxkb to 3
 (one more than the basis l, including polarization orbitals).
Use PS.lmax or PS.KBprojectors blocks to override.

<basis_specs>
===============================================================================
Fe                   Z=  26    Mass=  55.845        Charge= 0.17977+309
Lmxo=2 Lmxkb= 3    BasisType=split      Semic=F
L=0  Nsemic=0  Cnfigmx=4
          i=1  nzeta=1  polorb=1  (4s)  (to be polarized perturbatively)
            splnorm:   0.15000    
               vcte:    40.000    
               rinn:  -0.90000    
               qcoe:    0.0000    
               qyuk:    0.0000    
               qwid:   0.10000E-01
                rcs:    0.0000    
            lambdas:    1.0000    
L=1  Nsemic=0  Cnfigmx=4
          i=1  nzeta=0  polorb=0  (4p)  (perturbative polarization orbital) (from 4s)
L=2  Nsemic=0  Cnfigmx=3
          i=1  nzeta=1  polorb=0  (3d)
            splnorm:   0.15000    
               vcte:    40.000    
               rinn:  -0.90000    
               qcoe:    0.0000    
               qyuk:    0.0000    
               qwid:   0.10000E-01
                rcs:    0.0000    
            lambdas:    1.0000    
-------------------------------------------------------------------------------
L=0  Nkbl=1  erefs: 0.17977+309
L=1  Nkbl=1  erefs: 0.17977+309
L=2  Nkbl=1  erefs: 0.17977+309
L=3  Nkbl=1  erefs: 0.17977+309
===============================================================================
</basis_specs>

Using PAO.SplitTailNorm
atom: Called for Fe                    (Z =  26)
Maximum radius (at nrval) set to   50.00000 8518

read_vps: Pseudopotential generation method:
read_vps: ATM3      Troullier-Martins                       
Valence charge in pseudo generation:    8.00000

read_vps: Pseudopotential includes a core correction:
read_vps: Pseudo-core for xc-correction

xc_check: Exchange-correlation functional:
xc_check: Ceperley-Alder
xc_check: WARNING: Pseudopotential generated with GGA PBE functional
V l=0 = -2*Zval/r beyond r=  2.7766
V l=1 = -2*Zval/r beyond r=  2.7766
V l=2 = -2*Zval/r beyond r=  2.7766
V l=3 = -2*Zval/r beyond r=  2.7766
All V_l potentials equal beyond r=  1.9874
This should be close to max(r_c) in ps generation
All pots = -2*Zval/r beyond r=  2.7766
Using large-core scheme (fit) for Vlocal

atom: Estimated core radius    2.77662
Fit of Vlocal with continuous 2nd derivative
Fitting vlocal at       1.9934
Choosing vlocal chloc cutoff:***  3.026877
qtot up to nchloc:    8.00002973
atom: Maximum radius for chlocal:    3.02688
atom: Maximum radius for r*vlocal+2*Zval:    3.02688

KBgen: Kleinman-Bylander projectors: 
GHOST: No ghost state for L =  0
   l= 0   rc=  1.989365   el= -0.408929   Ekb=  4.152889   kbcos=  0.267455
GHOST: No ghost state for L =  1
   l= 1   rc=  2.019582   el= -0.109133   Ekb=  2.828557   kbcos=  0.198535
GHOST: No ghost state for L =  2
   l= 2   rc=  1.989365   el= -0.538965   Ekb=-12.703573   kbcos= -0.677960
GHOST: No ghost state for L =  3
   l= 3   rc=  1.993368   el=  0.019554   Ekb= -1.692504   kbcos= -0.007316

KBgen: Total number of Kleinman-Bylander projectors:  16
atom: -------------------------------------------------------------------------

atom: SANKEY-TYPE ORBITALS:

SPLIT: Orbitals with angular momentum L= 0

SPLIT: Basis orbitals for state 4s

SPLIT: PAO cut-off radius determined from an
SPLIT: energy shift=  0.022050 Ry
Split based on tail norm

   izeta = 1
                 lambda =    1.000000
                     rc =    6.166982
                 energy =   -0.383734
                kinetic =    0.372442
    potential(screened) =   -0.756176
       potential(ionic) =   -6.230683

SPLIT: Orbitals with angular momentum L= 2

SPLIT: Basis orbitals for state 3d

SPLIT: PAO cut-off radius determined from an
SPLIT: energy shift=  0.022050 Ry
Split based on tail norm

   izeta = 1
                 lambda =    1.000000
                     rc =    3.655005
                 energy =   -0.515299
                kinetic =    9.551036
    potential(screened) =  -10.066335
       potential(ionic) =  -18.924618

POLgen: Perturbative polarization orbital with L=  1

POLgen: Polarization orbital for state 4s
Split based on tail norm

   izeta = 1
                     rc =    6.166982
                 energy =    0.004215
                kinetic =    0.700246
    potential(screened) =   -0.696031
       potential(ionic) =   -5.862105
atom: Total number of Sankey-type orbitals:  9

atm_pop: Valence configuration (for local Pseudopot. screening):
 4s( 2.00)                                                            
 4p( 0.00)                                                            
 3d( 6.00)                                                            
Vna: chval, zval:    8.00000   8.00000

Vna:  Cut-off radius for the neutral-atom potential:   6.166982
comcore: Pseudo-core radius Rcore=  3.744030

atom: _________________________________________________________________________

<basis_specs>
===============================================================================
N                    Z=   7    Mass=  14.007        Charge= 0.17977+309
Lmxo=2 Lmxkb= 3    BasisType=split      Semic=F
L=0  Nsemic=0  Cnfigmx=2
          i=1  nzeta=1  polorb=0  (2s)
            splnorm:   0.15000    
               vcte:    40.000    
               rinn:  -0.90000    
               qcoe:    0.0000    
               qyuk:    0.0000    
               qwid:   0.10000E-01
                rcs:    0.0000    
            lambdas:    1.0000    
L=1  Nsemic=0  Cnfigmx=2
          i=1  nzeta=1  polorb=1  (2p)  (to be polarized perturbatively)
            splnorm:   0.15000    
               vcte:    40.000    
               rinn:  -0.90000    
               qcoe:    0.0000    
               qyuk:    0.0000    
               qwid:   0.10000E-01
                rcs:    0.0000    
            lambdas:    1.0000    
L=2  Nsemic=0  Cnfigmx=3
          i=1  nzeta=0  polorb=0  (3d)  (perturbative polarization orbital) (from 2p)
-------------------------------------------------------------------------------
L=0  Nkbl=1  erefs: 0.17977+309
L=1  Nkbl=1  erefs: 0.17977+309
L=2  Nkbl=1  erefs: 0.17977+309
L=3  Nkbl=1  erefs: 0.17977+309
===============================================================================
</basis_specs>

Using PAO.SplitTailNorm
atom: Called for N                     (Z =   7)
Maximum radius (at nrval) set to   50.00000 8518

read_vps: Pseudopotential generation method:
read_vps: ATM 3.2.2 Troullier-Martins                       
Valence charge in pseudo generation:    5.00000

xc_check: Exchange-correlation functional:
xc_check: Ceperley-Alder
V l=0 = -2*Zval/r beyond r=  1.2063
V l=1 = -2*Zval/r beyond r=  1.2015
V l=2 = -2*Zval/r beyond r=  1.2015
V l=3 = -2*Zval/r beyond r=  1.1966
All V_l potentials equal beyond r=  1.1321
This should be close to max(r_c) in ps generation
All pots = -2*Zval/r beyond r=  1.2063
Using small-core scheme (local charge) for Vlocal

VLOCAL_FROM_CHLOCAL: 99.0% of the norm of Vloc inside     33.871 Ry
VLOCAL_FROM_CHLOCAL: 99.9% of the norm of Vloc inside     77.193 Ry
atom: Maximum radius for chlocal:    1.36414
atom: Maximum radius for r*vlocal+2*Zval:    1.24587

KBgen: Kleinman-Bylander projectors: 
GHOST: No ghost state for L =  0
   l= 0   rc=  1.390501   el= -1.352238   Ekb=  9.593565   kbcos=  0.296327
GHOST: No ghost state for L =  1
   l= 1   rc=  1.396114   el= -0.532622   Ekb= -6.588813   kbcos= -0.328649
GHOST: No ghost state for L =  2
   l= 2   rc=  1.594528   el=  0.013293   Ekb= -1.766625   kbcos= -0.004121
GHOST: No ghost state for L =  3
   l= 3   rc=  1.716040   el=  0.019581   Ekb= -0.700989   kbcos= -0.000404

KBgen: Total number of Kleinman-Bylander projectors:  16
atom: -------------------------------------------------------------------------

atom: SANKEY-TYPE ORBITALS:

SPLIT: Orbitals with angular momentum L= 0

SPLIT: Basis orbitals for state 2s

SPLIT: PAO cut-off radius determined from an
SPLIT: energy shift=  0.022050 Ry
Split based on tail norm

   izeta = 1
                 lambda =    1.000000
                     rc =    3.604053
                 energy =   -1.328130
                kinetic =    1.284023
    potential(screened) =   -2.612154
       potential(ionic) =   -8.209162

SPLIT: Orbitals with angular momentum L= 1

SPLIT: Basis orbitals for state 2p

SPLIT: PAO cut-off radius determined from an
SPLIT: energy shift=  0.022050 Ry
Split based on tail norm

   izeta = 1
                 lambda =    1.000000
                     rc =    4.222657
                 energy =   -0.508556
                kinetic =    3.831176
    potential(screened) =   -4.339732
       potential(ionic) =   -9.826027

POLgen: Perturbative polarization orbital with L=  2

POLgen: Polarization orbital for state 2p
Split based on tail norm

   izeta = 1
                     rc =    4.222657
                 energy =    1.888029
                kinetic =    3.670147
    potential(screened) =   -1.782119
       potential(ionic) =   -6.319844
atom: Total number of Sankey-type orbitals:  9

atm_pop: Valence configuration (for local Pseudopot. screening):
 2s( 2.00)                                                            
 2p( 3.00)                                                            
 3d( 0.00)                                                            
Vna: chval, zval:    5.00000   5.00000

Vna:  Cut-off radius for the neutral-atom potential:   4.222657

atom: _________________________________________________________________________

prinput: Basis input 

PAO.BasisType split     

%block ChemicalSpeciesLabel
    1   26 Fe                      # Species index, atomic number, species label
    2    7 N                       # Species index, atomic number, species label
%endblock ChemicalSpeciesLabel

%block PAO.Basis                 # Define Basis set
# WARNING: This information might be incomplete!
Fe                    2                    # Species label, number of l-shells
 n=4   0   1 P   1                   # n, l, Nzeta, Polarization, NzetaPol
   6.167   
   1.000   
 n=3   2   1                         # n, l, Nzeta 
   3.655   
   1.000   
N                     2                    # Species label, number of l-shells
 n=2   0   1                         # n, l, Nzeta 
   3.604   
   1.000   
 n=2   1   1 P   1                   # n, l, Nzeta, Polarization, NzetaPol
   4.223   
   1.000   
%endblock PAO.Basis

prinput: ----------------------------------------------------------------------

Dumping basis to NetCDF file Fe.ion.nc
Dumping basis to NetCDF file N.ion.nc
coor:   Atomic-coordinates input format  =     Fractional

siesta: Atomic coordinates (Bohr) and species
siesta:      0.00000   0.00000   0.00000  1        1
siesta:      2.03618   2.03618   2.03618  2        2

siesta: System type = bulk      

initatomlists: Number of atoms, orbitals, and projectors:      2    18    32

siesta: ******************** Simulation parameters ****************************
siesta:
siesta: The following are some of the parameters of the simulation.
siesta: A complete list of the parameters used, including default values,
siesta: can be found in file out.fdf
siesta:
redata: Spin configuration                          = non-collinear
redata: Number of spin components                   = 4
redata: Time-Reversal Symmetry                      = F
redata: Spin spiral                                 = F
redata: Long output                                 =   F
redata: Number of Atomic Species                    =        2
redata: Charge density info will appear in .RHO file
redata: Write Mulliken Pop.                         = Atomic and Orbital charges
redata: Matel table size (NRTAB)                    =     1024
redata: Mesh Cutoff                                 =    50.0000 Ry
redata: Net charge of the system                    =     0.0000 |e|
redata: Min. number of SCF Iter                     =        0
redata: Max. number of SCF Iter                     =     1000
redata: SCF convergence failure will abort job
redata: SCF mix quantity                            = Hamiltonian
redata: Mix DM or H after convergence               =   F
redata: Recompute H after scf cycle                 =   F
redata: Mix DM in first SCF step                    =   T
redata: Write Pulay info on disk                    =   F
redata: New DM Occupancy tolerance                  = 0.000000000001
redata: No kicks to SCF
redata: DM Mixing Weight for Kicks                  =     0.5000
redata: Require Harris convergence for SCF          =   F
redata: Harris energy tolerance for SCF             =     0.000100 eV
redata: Require DM convergence for SCF              =   T
redata: DM tolerance for SCF                        =     0.000100
redata: Require EDM convergence for SCF             =   F
redata: EDM tolerance for SCF                       =     0.001000 eV
redata: Require H convergence for SCF               =   T
redata: Hamiltonian tolerance for SCF               =     0.001000 eV
redata: Require (free) Energy convergence for SCF   =   F
redata: (free) Energy tolerance for SCF             =     0.000100 eV
redata: Using DFT-D3 dispersion                     =   F
redata: Using Saved Data (generic)                  =   F
redata: Use continuation files for DM               =   F
redata: Neglect nonoverlap interactions             =   F
redata: Method of Calculation                       = Diagonalization
redata: Electronic Temperature                      =   299.9863 K
redata: Fix the spin of the system                  =   F
redata: Max. number of TDED Iter                    =        1
redata: Number of TDED substeps                     =        3
redata: Dynamics option                             = Single-point calculation
mix.SCF: Pulay mixing                            = Pulay
mix.SCF:    Variant                              = stable
mix.SCF:    History steps                        = 3
mix.SCF:    Linear mixing weight                 =     0.300000
mix.SCF:    Mixing weight                        =     0.300000
mix.SCF:    SVD condition                        = 0.1000E-07
mix.SCF: Spin-component mixing                   all
redata: Save all siesta data in one NC              =   F
redata: ***********************************************************************

%block SCF.Mixers
  Pulay
%endblock SCF.Mixers

%block SCF.Mixer.Pulay
  # Mixing method
  method pulay
  variant stable

  # Mixing options
  weight 0.3000
  weight.linear 0.3000
  history 3
%endblock SCF.Mixer.Pulay

DM_history_depth set to one: no extrapolation allowed by default for geometry relaxation
Size of DM history Fstack: 1
Total number of electrons:    13.000000
Total ionic charge:    13.000000

Time-reversal symmetry not used.

siesta: k-grid: Number of k-points = 64
siesta: k-points from cutoff
siesta: k-cutoff (effective) =     6.095 Ang
siesta: k-point supercell and displacements
siesta: k-grid:     0     4     0      0.500
siesta: k-grid:     0     0     4      0.500
siesta: k-grid:     4     0     0      0.500

diag: Algorithm                                     = D&C
diag: Used triangular part                          = Lower
diag: Absolute tolerance                            =  0.100E-15
diag: Orthogonalization factor                      =  0.100E-05
diag: Memory factor                                 =  1.0000

superc: Internal auxiliary supercell:     5 x     5 x     5  =     125
superc: Number of atoms, orbitals, and projectors:    250   2250   4000


ts: **************************************************************
ts: Save H and S matrices                           =    F
ts: Save DM and EDM matrices                        =    F
ts: Only save the overlap matrix S                  =    F
ts: **************************************************************

************************ Begin: TS CHECKS AND WARNINGS ************************
************************ End: TS CHECKS AND WARNINGS **************************


                     ====================================
                        Single-point calculation
                     ====================================

superc: Internal auxiliary supercell:     5 x     5 x     5  =     125
superc: Number of atoms, orbitals, and projectors:    250   2250   4000

outcell: Unit cell vectors (Ang):
        2.155000    2.155000    0.000000
        0.000000    2.155000    2.155000
        2.155000    0.000000    2.155000

outcell: Cell vector modules (Ang)   :    3.047630    3.047630    3.047630
outcell: Cell angles (23,13,12) (deg):     60.0000     60.0000     60.0000
outcell: Cell volume (Ang**3)        :     20.0157
<dSpData1D:S at geom step 0
  <sparsity:sparsity for geom step 0
    nrows_g=18 nrows=18 sparsity=42.4012 nnzs=13738, refcount: 7>
  <dData1D:(new from dSpData1D) n=13738, refcount: 1>
refcount: 1>
new_DM -- step:     1
Initializing Density Matrix...
DM filled with atomic data:
<dSpData2D:DM initialized from atoms
  <sparsity:sparsity for geom step 0
    nrows_g=18 nrows=18 sparsity=42.4012 nnzs=13738, refcount: 8>
  <dData2D:DM n=13738 m=4, refcount: 1>
refcount: 1>
     spin moment: {S} , |S| = {    0.00000    0.00000    7.00000 }     7.00000
No. of atoms with KB's overlaping orbs in proc 0. Max # of overlaps:      38     189

InitMesh: MESH = 12 x 12 x 12 = 1728
InitMesh: Mesh cutoff (required, used) =    50.000    64.273 Ry
New grid distribution [1]: sub = 2

stepf: Fermi-Dirac step function

siesta: Program's energy decomposition (eV):
siesta: Ebs     =      -125.688247
siesta: Eions   =      1237.601572
siesta: Ena     =       168.314031
siesta: Ekin    =       921.367370
siesta: Enl     =      -443.909183
siesta: Eso     =         0.000000
siesta: Edftu   =         0.000000
siesta: DEna    =        -6.195053
siesta: DUscf   =         4.743016
siesta: DUext   =         0.000000
siesta: Ex      =      -409.277336
siesta: Ec      =       -39.095381
siesta: Exc     =      -448.372717
siesta: EbV     =         0.000000
siesta: eta*DQ  =         0.000000
siesta: Emadel  =         0.000000
siesta: Emeta   =         0.000000
siesta: Emolmec =         0.000000
siesta: Ekinion =         0.000000
siesta: Eharris =     -1036.242797
siesta: Etot    =     -1041.654107
siesta: FreeEng =     -1041.657552

        iscf     Eharris(eV)        E_KS(eV)     FreeEng(eV)     dDmax    Ef(eV) dHmax(eV)
   scf:    1    -1036.242797    -1041.654107    -1041.657552  0.913438 -2.439522  6.896321
     spin moment: {S} , |S| = {   -0.00000    0.00000    4.10715 }     4.10715
timer: Routine,Calls,Time,% = IterSCF        1       0.076   3.65
   scf:    2    -1043.075882    -1044.630005    -1044.637284  0.224832 -3.552401  3.653310
     spin moment: {S} , |S| = {    0.00000    0.00000    3.06589 }     3.06589
   scf:    3    -1045.415533    -1045.228959    -1045.238112  0.060363 -3.344064  1.389100
     spin moment: {S} , |S| = {    0.00000   -0.00000    3.00662 }     3.00662
   scf:    4    -1046.272878    -1045.732463    -1045.736962  0.231451 -4.227720  2.532029
     spin moment: {S} , |S| = {   -0.00000   -0.00000    1.49417 }     1.49417
   scf:    5    -1046.022225    -1045.957486    -1045.963165  0.031533 -3.878854  0.715141
     spin moment: {S} , |S| = {   -0.00000   -0.00000    1.57961 }     1.57961
   scf:    6    -1046.307531    -1046.112519    -1046.118013  0.102088 -3.834058  0.803575
     spin moment: {S} , |S| = {    0.00000   -0.00000    1.07109 }     1.07109
   scf:    7    -1046.218952    -1046.165222    -1046.167627  0.021507 -3.764002  0.339974
     spin moment: {S} , |S| = {    0.00000   -0.00000    0.92958 }     0.92958
   scf:    8    -1046.219014    -1046.190471    -1046.193771  0.014353 -3.744807  0.281168
     spin moment: {S} , |S| = {   -0.00000   -0.00000    0.81160 }     0.81160
   scf:    9    -1046.372261    -1046.261624    -1046.265295  0.066879 -3.721912  0.254423
     spin moment: {S} , |S| = {   -0.00000   -0.00000    0.38190 }     0.38190
   scf:   10    -1046.274810    -1046.268047    -1046.271117  0.005678 -3.818607  0.192639
     spin moment: {S} , |S| = {   -0.00000    0.00000    0.37494 }     0.37494
   scf:   11    -1046.248845    -1046.259451    -1046.263753  0.009544 -3.751955  0.292086
     spin moment: {S} , |S| = {    0.00000    0.00000    0.39355 }     0.39355
   scf:   12    -1046.284507    -1046.271372    -1046.274535  0.009959 -3.897932  0.031056
     spin moment: {S} , |S| = {    0.00000   -0.00000    0.37319 }     0.37319
   scf:   13    -1046.272138    -1046.271722    -1046.275030  0.001968 -3.911916  0.026676
     spin moment: {S} , |S| = {   -0.00000   -0.00000    0.37033 }     0.37033
   scf:   14    -1046.272152    -1046.271868    -1046.275396  0.003228 -3.922656  0.011274
     spin moment: {S} , |S| = {   -0.00000   -0.00000    0.36447 }     0.36447
   scf:   15    -1046.271907    -1046.271882    -1046.275438  0.000918 -3.921743  0.004199
     spin moment: {S} , |S| = {   -0.00000    0.00000    0.36408 }     0.36408
   scf:   16    -1046.271859    -1046.271869    -1046.275446  0.000446 -3.921792  0.002225
     spin moment: {S} , |S| = {    0.00000    0.00000    0.36371 }     0.36371
   scf:   17    -1046.271858    -1046.271864    -1046.275446  0.000071 -3.921746  0.001425
     spin moment: {S} , |S| = {    0.00000   -0.00000    0.36358 }     0.36358
   scf:   18    -1046.271848    -1046.271856    -1046.275447  0.000092 -3.921950  0.000909
     spin moment: {S} , |S| = {    0.00000    0.00000    0.36338 }     0.36338

SCF Convergence by DM+H criterion
max |DM_out - DM_in|         :     0.0000921797
max |H_out - H_in|      (eV) :     0.0009094131
SCF cycle converged after 18 iterations

Using DM_out to compute the final energy and forces
No. of atoms with KB's overlaping orbs in proc 0. Max # of overlaps:      38     189

siesta: E_KS(eV) =            -1046.2719

siesta: E_KS - E_eggbox =     -1046.2719
     spin moment: {S} , |S| = {    0.00000    0.00000    0.36338 }     0.36338

siesta: Atomic forces (eV/Ang):
----------------------------------------
   Tot    0.006997    0.006997    0.006997
----------------------------------------
   Max    0.416715
   Res    0.413232    sqrt( Sum f_i^2 / 3N )
----------------------------------------
   Max    0.416715    constrained

Stress tensor Voigt[x,y,z,yz,xz,xy] (kbar):      209.53      209.53      209.53        9.92        9.92        9.92
(Free)E + p*V (eV/cell)    -1048.8930
Target enthalpy (eV/cell)    -1046.2754

mulliken: Atomic and Orbital Populations:

Species: Fe                  

Atom      Orb        Charge      Spin       Svec
----------------------------------------------------------------
    1  1 4s         0.52028   0.00307     -0.000  -0.000   0.003
    1  2 3dxy       1.03613   0.07396     -0.000   0.000   0.074
    1  3 3dyz       1.03613   0.07396     -0.000  -0.000   0.074
    1  4 3dz2       1.51115   0.05957      0.000   0.000   0.060
    1  5 3dxz       1.03613   0.07396     -0.000   0.000   0.074
    1  6 3dx2-y2    1.51115   0.05957      0.000  -0.000   0.060
    1  7 4Ppy       0.26211   0.00571     -0.000   0.000   0.006
    1  8 4Ppz       0.26211   0.00571     -0.000   0.000   0.006
    1  9 4Ppx       0.26211   0.00571     -0.000   0.000   0.006
    1     Total     7.43728   0.36121      0.000   0.000   0.361

----------------------------------------------------------------
Total               7.43728   0.36121      0.000   0.000   0.361


Species: N                   

Atom      Orb        Charge      Spin       Svec
----------------------------------------------------------------
    2  1 2s         1.61569   0.00074      0.000   0.000   0.001
    2  2 2py        1.27029   0.00060     -0.000   0.000  -0.001
    2  3 2pz        1.27029   0.00060     -0.000   0.000  -0.001
    2  4 2px        1.27029   0.00060      0.000  -0.000  -0.001
    2  5 3Pdxy      0.02178   0.00068      0.000  -0.000   0.001
    2  6 3Pdyz      0.02178   0.00068      0.000   0.000   0.001
    2  7 3Pdz2      0.03541   0.00060     -0.000  -0.000   0.001
    2  8 3Pdxz      0.02178   0.00068      0.000  -0.000   0.001
    2  9 3Pdx2-y2   0.03541   0.00060     -0.000   0.000   0.001
    2     Total     5.56272   0.00216      0.000   0.000   0.002

----------------------------------------------------------------
Total              13.00000   0.36338      0.000   0.000   0.363


siesta: Program's energy decomposition (eV):
siesta: Ebs     =      -120.298113
siesta: Eions   =      1237.601572
siesta: Ena     =       168.314031
siesta: Ekin    =       953.527082
siesta: Enl     =      -485.052619
siesta: Eso     =         0.000000
siesta: Edftu   =         0.000000
siesta: DEna    =         4.327174
siesta: DUscf   =         0.469919
siesta: DUext   =         0.000000
siesta: Ex      =      -410.295582
siesta: Ec      =       -39.960288
siesta: Exc     =      -450.255870
siesta: EbV     =         0.000000
siesta: eta*DQ  =         0.000000
siesta: Emadel  =         0.000000
siesta: Emeta   =         0.000000
siesta: Emolmec =         0.000000
siesta: Ekinion =         0.000000
siesta: Eharris =     -1046.271848
siesta: Etot    =     -1046.271856
siesta: FreeEng =     -1046.275447

siesta: Final energy (eV):
siesta:  Band Struct. =    -120.298113
siesta:       Kinetic =     953.527082
siesta:       Hartree =     160.058022
siesta:         Edftu =       0.000000
siesta:       Eso     =       0.000000
siesta:    Ext. field =       0.000000
siesta:         Exch. =    -410.295582
siesta:         Corr. =     -39.960288
siesta:     Bulk bias =       0.000000
siesta:   Exch.-corr. =    -450.255870
siesta:  Ion-electron =   -1119.519120
siesta:       Ion-ion =    -590.081969
siesta:       Ekinion =       0.000000
siesta: D3 dispersion =       0.000000
siesta:         Total =   -1046.271856
siesta:         Fermi =      -3.921950

siesta: Atomic forces (eV/Ang):
siesta:      1   -0.409719   -0.409719   -0.409719
siesta:      2    0.416715    0.416715    0.416715
siesta: ----------------------------------------
siesta:    Tot    0.006997    0.006997    0.006997

siesta: Stress tensor (static) (eV/Ang**3):
siesta:     0.130776    0.006191    0.006191
siesta:     0.006191    0.130776    0.006191
siesta:     0.006191    0.006191    0.130776

siesta: Cell volume =         20.015748 Ang**3

siesta: Pressure (static):
siesta:                Solid            Molecule  Units
siesta:          -0.00142433         -0.00166660  Ry/Bohr**3
siesta:          -0.13077591         -0.15302046  eV/Ang**3
siesta:        -209.52610048       -245.16579775  kBar
(Free)E+ p_basis*V_orbitals  =       -1045.721197
(Free)Eharris+ p_basis*V_orbitals  =       -1045.721189
     spin moment: {S} , |S| = {    0.00000    0.00000    0.36338 }     0.36338

Hirshfeld Atomic Populations:
Atom #     dQatom  Atom pop         S        Sx        Sy        Sz  Species
     1    0.12627   7.87373   0.34203   0.00000   0.00000   0.34203  Fe
     2   -0.12673   5.12673   0.02128   0.00000   0.00000   0.02128  N
-------------------------------------------------------------------
 Total                        0.36331   0.00000   0.00000   0.36331

Voronoi Atomic Populations:
Atom #     dQatom  Atom pop         S        Sx        Sy        Sz  Species
     1    0.16715   7.83285   0.34713   0.00000   0.00000   0.34713  Fe
     2   -0.16791   5.16791   0.01618   0.00000   0.00000   0.01618  N
-------------------------------------------------------------------
 Total                        0.36331   0.00000   0.00000   0.36331
 
Bader Analysis core-charge setup. Radii (standard, H):  1.000 0.600

cite: Please see "charge_sp.bib" for an exhaustive BiBTeX file.
cite: Please clearly indicate Siesta version in published work: 5.0.0-alpha-123-gfb8fd7d02
cite: This calculation has made use of the following articles
cite: which are encouraged to be cited in a published work.
        Primary SIESTA paper
          DOI: www.doi.org/10.1088/0953-8984/14/11/302


timer: Elapsed wall time (sec) =       3.461
timer: CPU execution times (sec):

Routine            Calls   Time/call    Tot.time        %
siesta                 1       3.461       3.461   100.00
Setup                  1       0.074       0.074     2.15
bands                  1       0.000       0.000     0.00
KSV_init               1       0.000       0.000     0.00
IterGeom               1       3.372       3.372    97.44
geom_init              1       1.937       1.937    55.97
state_init             1       0.183       0.183     5.29
hsparse                1       0.002       0.002     0.07
overlap                1       0.172       0.172     4.98
Setup_H0               1       1.734       1.734    50.10
naefs                  2       0.000       0.000     0.01
MolMec                 2       0.000       0.000     0.00
kinefsm                2       0.085       0.171     4.94
nlefsm                 2       0.791       1.582    45.71
DHSCF_Init             1       0.014       0.014     0.41
DHSCF1                 1       0.001       0.001     0.04
INITMESH               1       0.000       0.000     0.00
DHSCF2                 1       0.013       0.013     0.38
REMESH                 1       0.003       0.003     0.07
REORD                191       0.000       0.000     0.01
PHION                  1       0.009       0.009     0.25
COMM_BSC             343       0.000       0.001     0.02
POISON                22       0.000       0.001     0.02
fft                   44       0.000       0.000     0.01
setup_H               19       0.017       0.320     9.24
DHSCF                 21       0.018       0.375    10.83
DHSCF3                21       0.016       0.346    10.01
rhoofd                21       0.008       0.170     4.91
XC                    21       0.000       0.006     0.17
GXC-CellXC            21       0.000       0.006     0.16
gridxc@cellXC         21       0.000       0.006     0.16
vmat                  20       0.008       0.163     4.72
IterSCF               18       0.075       1.355    39.16
compute_dm            18       0.058       1.039    30.03
diagon                18       0.058       1.038    29.99
cdiag               2304       0.000       0.240     6.94
cdiag1              2304       0.000       0.012     0.36
cdiag2              2304       0.000       0.049     1.41
cdiag3              2304       0.000       0.164     4.75
cdiag4              1152       0.000       0.005     0.15
MIXER                 17       0.000       0.008     0.23
PostSCF                1       0.079       0.079     2.29
DHSCF4                 1       0.028       0.028     0.82
dfscf                  1       0.026       0.026     0.76
overfsm                1       0.002       0.002     0.05
state_analysis         1       0.000       0.000     0.01
siesta_move            1       0.000       0.000     0.00
Analysis               1       0.014       0.014     0.41
optical                1       0.000       0.000     0.00
partial-charges        1       0.004       0.004     0.11
  

>> End of run:  28-SEP-2023  15:38:50
Job completed
