Executable      : /home/nicpa/siesta/siesta/obj_cmake/Src/siesta
Version         : 5.2.0-12-gcf4f59232
Architecture    : x86_64
Compiler version: GNU-12.3.0
Compiler flags  : -DSIESTA__METIS -fallow-argument-mismatch -O3 -march=native
Environment variables: 
  SIESTA_PS_PATH: /home/nicpa/siesta/siesta/Tests/Pseudos
Parallelisations: none
NetCDF support
NetCDF-4 support
METIS ordering support
Lua support
DFT-D3 support

Runtime information:
* Directory : /home/nicpa/siesta/siesta/obj_cmake/Tests/16.TranSiesta/ts_chain/work
* Running in serial mode.
>> Start of run:  15-JAN-2025  15:35:41

                           *********************** 
                           *  WELCOME TO SIESTA  * 
                           *********************** 

 NOTE: Siesta V5 introduces some new defaults for basis-set generation
 NOTE: which might lead to slightly different numerical results.
 NOTE: Please see the manual for full details and compatibility measures.


reinit: Reading from file ../../ts_chain.fdf

reinit: -----------------------------------------------------------------------
reinit: System Name: 
reinit: -----------------------------------------------------------------------
reinit: System Label: ts_chain
reinit: -----------------------------------------------------------------------

initatom: Reading input for the pseudopotentials and atomic orbitals ----------
Species number:   1 Atomic number:    6 Label: C

Ground state valence configuration (from tables):   2s02  2p02  3d00  4f00

---- Processing specs for species: C
Reading pseudopotential information in formatted form from:
  /home/nicpa/siesta/siesta/Tests/Pseudos/C.psf

---- Pseudopotential check for C 

Pseudized shells:
2s( 2.00) rc: 1.49
2p( 2.00) rc: 1.52
3d( 0.00) rc: 1.58
Valence configuration for ps generation: (assumed as above)
For C, standard SIESTA heuristics set lmxkb to 2
 (one more than the basis l, including polarization orbitals).
Use PS.lmax or PS.KBprojectors blocks to override.

<basis_specs>
===============================================================================
C                    Z=   6    Mass=  12.011        Charge= 0.17977+309
Lmxo=1 Lmxkb= 2    BasisType=split      Semic=F
L=0  Nsemic=0  Cnfigmx=2
          i=1  nzeta=1  polorb=0  (2s)
            splnorm:   0.15000    
               vcte:    40.000    
               rinn:  -0.90000    
               qcoe:    0.0000    
               qyuk:    0.0000    
               qwid:   0.10000E-01
                rcs:    0.0000    
            lambdas:    1.0000    
L=1  Nsemic=0  Cnfigmx=2
          i=1  nzeta=1  polorb=0  (2p)
            splnorm:   0.15000    
               vcte:    40.000    
               rinn:  -0.90000    
               qcoe:    0.0000    
               qyuk:    0.0000    
               qwid:   0.10000E-01
                rcs:    0.0000    
            lambdas:    1.0000    
-------------------------------------------------------------------------------
L=0  Nkbl=1  erefs: 0.17977+309
L=1  Nkbl=1  erefs: 0.17977+309
L=2  Nkbl=1  erefs: 0.17977+309
===============================================================================
</basis_specs>

Using PAO.SplitTailNorm
atom: Called for C                     (Z =   6)
Maximum radius (at nrval) set to   50.00000 8518

read_vps: Pseudopotential generation method:
read_vps: ATM3      Troullier-Martins                       
Valence charge in pseudo generation:    4.00000

xc_check: Exchange-correlation functional:
xc_check: Ceperley-Alder
V l=0 = -2*Zval/r beyond r=  1.4801
V l=1 = -2*Zval/r beyond r=  1.5087
V l=2 = -2*Zval/r beyond r=  1.5628
All V_l potentials equal beyond r=  1.5612
This should be close to max(r_c) in ps generation
All pots = -2*Zval/r beyond r=  1.5628
Using small-core scheme (local charge) for Vlocal

VLOCAL_FROM_CHLOCAL: 99.0% of the norm of Vloc inside     17.810 Ry
VLOCAL_FROM_CHLOCAL: 99.9% of the norm of Vloc inside     40.589 Ry
atom: Maximum radius for chlocal:    1.86354
atom: Maximum radius for r*vlocal+2*Zval:    1.70915

KBgen: Kleinman-Bylander projectors: 
GHOST: No ghost state for L =  0
   l= 0   rc=  1.745634   el= -1.001947   Ekb=  5.181804   kbcos=  0.300616
GHOST: No ghost state for L =  1
   l= 1   rc=  1.745634   el= -0.398598   Ekb= -4.328614   kbcos= -0.367151
GHOST: No ghost state for L =  2
   l= 2   rc=  1.934160   el=  0.013259   Ekb= -1.016084   kbcos= -0.010830

KBgen: Total number of Kleinman-Bylander projectors:   9
atom: -------------------------------------------------------------------------

atom: SANKEY-TYPE ORBITALS:

SPLIT: Orbitals with angular momentum L= 0

SPLIT: Basis orbitals for state 2s

SPLIT: PAO cut-off radius determined from an
SPLIT: energy shift=  0.020212 Ry
Split based on tail norm

   izeta = 1
                 lambda =    1.000000
                     rc =    4.130555
                 energy =   -0.979533
                kinetic =    0.906678
    potential(screened) =   -1.886211
       potential(ionic) =   -5.509172

SPLIT: Orbitals with angular momentum L= 1

SPLIT: Basis orbitals for state 2p

SPLIT: PAO cut-off radius determined from an
SPLIT: energy shift=  0.020212 Ry
Split based on tail norm

   izeta = 1
                 lambda =    1.000000
                     rc =    4.848986
                 energy =   -0.376436
                kinetic =    2.581456
    potential(screened) =   -2.957892
       potential(ionic) =   -6.483016
atom: Total number of Sankey-type orbitals:  4

atm_pop: Valence configuration (for local Pseudopot. screening):
 2s( 2.00)                                                            
 2p( 2.00)                                                            
Vna: chval, zval:    4.00000   4.00000

Vna:  Cut-off radius for the neutral-atom potential:   4.848986

atom: _________________________________________________________________________

prinput: Basis input 

PAO.BasisType split     

%block ChemicalSpeciesLabel
    1    6 C                       # Species index, atomic number, species label
%endblock ChemicalSpeciesLabel

%block PAO.Basis                 # Define Basis set
# WARNING: This information might be incomplete!
C                     2                    # Species label, number of l-shells
 n=2   0   1                         # n, l, Nzeta 
   4.131   
   1.000   
 n=2   1   1                         # n, l, Nzeta 
   4.849   
   1.000   
%endblock PAO.Basis

prinput: ----------------------------------------------------------------------

Dumping basis to NetCDF file C.ion.nc
coor:   Atomic-coordinates input format  =     Cartesian coordinates
coor:                                          (in Angstroms)

siesta: Atomic coordinates (Bohr) and species
siesta:      0.00000   9.44863  28.79943  1        1
siesta:      2.39995   9.44863  28.79943  1        2
siesta:      4.79990   9.44863  28.79943  1        3
siesta:      7.19986   9.44863  28.79943  1        4
siesta:      9.59981   9.44863  28.79943  1        5
siesta:     11.99976   9.44863  28.79943  1        6
siesta:     18.89726   9.44863  28.79943  1        7
siesta:     21.29721   9.44863  28.79943  1        8
siesta:     23.69717   9.44863  28.79943  1        9
siesta:     26.09712   9.44863  28.79943  1       10
siesta:     28.49707   9.44863  28.79943  1       11
siesta:     30.89702   9.44863  28.79943  1       12

siesta: System type = chain     

initatomlists: Number of atoms, orbitals, and projectors:     12    48   108

siesta: ******************** Simulation parameters ****************************
siesta:
siesta: The following are some of the parameters of the simulation.
siesta: A complete list of the parameters used, including default values,
siesta: can be found in file out.fdf
siesta:
redata: Spin configuration                          = none
redata: Number of spin components                   = 1
redata: Time-Reversal Symmetry                      = T
redata: Spin spiral                                 = F
redata: Long output                                 =   F
redata: Number of Atomic Species                    =        1
redata: Charge density info will appear in .RHO file
redata: Write Mulliken charges (when)               = geometry+end
redata: Write Mulliken Pop.                         = Atomic and Orbital charges
redata: Write Hirshfeld charges (when)              = none
redata: Write Voronoi charges (when)                = none
redata: Write spin charge (when)                    = none
redata: Matel table size (NRTAB)                    =     1024
redata: Mesh Cutoff                                 =    50.0000 Ry
redata: Net charge of the system                    =     0.0000 |e|
redata: Min. number of SCF Iter                     =        3
redata: Max. number of SCF Iter                     =      200
redata: SCF convergence failure will abort job
redata: SCF mix quantity                            = Hamiltonian
redata: Mix DM or H after convergence               =   F
redata: Recompute H after scf cycle                 =   F
redata: Mix DM in first SCF step                    =   T
redata: Write Pulay info on disk                    =   F
redata: New DM Occupancy tolerance                  = 0.000000000001
redata: No kicks to SCF
redata: DM Mixing Weight for Kicks                  =     0.5000
redata: Require Harris convergence for SCF          =   F
redata: Harris energy tolerance for SCF             =     0.000100 eV
redata: Require DM convergence for SCF              =   T
redata: DM tolerance for SCF                        =     0.000100
redata: Require EDM convergence for SCF             =   F
redata: EDM tolerance for SCF                       =     0.001000 eV
redata: Require H convergence for SCF               =   T
redata: Hamiltonian tolerance for SCF               =     0.001000 eV
redata: Require (free) Energy convergence for SCF   =   F
redata: (free) Energy tolerance for SCF             =     0.000100 eV
redata: Using DFT-D3 dispersion                     =   F
redata: Using Saved Data (generic)                  =   F
redata: Use continuation files for DM               =   T
redata: Neglect nonoverlap interactions             =   F
redata: Method of Calculation                       = Transiesta
redata: Fix the spin of the system                  =   F
redata: Max. number of TDED Iter                    =        1
redata: Number of TDED substeps                     =        3
redata: Dynamics option                             = Single-point calculation
mix.SCF: Pulay mixing                            = Pulay
mix.SCF:    Variant                              = stable
mix.SCF:    History steps                        = 6
mix.SCF:    Linear mixing weight                 =     0.050000
mix.SCF:    Mixing weight                        =     0.050000
mix.SCF:    SVD condition                        = 0.1000E-07
redata: Save all siesta data in one NC              =   F
redata: ***********************************************************************

%block SCF.Mixers
  Pulay
%endblock SCF.Mixers

%block SCF.Mixer.Pulay
  # Mixing method
  method pulay
  variant stable

  # Mixing options
  weight 0.0500
  weight.linear 0.0500
  history 6
%endblock SCF.Mixer.Pulay

DM_history_depth set to one: no extrapolation allowed by default for geometry relaxation
Size of DM history Fstack: 1
Total number of electrons:    48.000000
Total ionic charge:    48.000000

siesta: k-grid: Number of k-points = 1
siesta: k-point is Gamma-only


siesta: transiesta k-grid: Number of k-points = 1
siesta: transiesta k-point is Gamma-only

ts: **************************************************************
ts: Voltage                                         =    0.0000 Volts
ts: Save H and S matrices                           =    F
ts: Electronic temperature                          =  299.986274 K
ts: Transport along unit-cell vector                =    A1
ts: Transport along Cartesian vector                =    X
ts: Fixing Hartree potential at cell boundary       =    -A
ts: Fix Hartree potential fraction                  =    1.0000
ts: Hartree potential offset                        =    0.000000 eV
ts: Solution method                                 =    BTD
ts: BTD pivoting method                             =    atom+high
ts: BTD creation algorithm                          =    speed
ts: SCF DM tolerance                                = 0.100E-03
ts: SCF Hamiltonian tolerance                       =    0.001000 eV
ts: SCF converge charge                             =    T
ts: SCF charge tolerance                            = 0.480E-01
ts: Initialize DM by                                =    diagon
ts: Will not correct charge fluctuations
ts: TS.SCF mixing options same as SCF
ts:           >> Electrodes << 
ts: >> high
ts:   Electrode cell pivoting: E1, E2, E3           = A1, A2, A3
ts:   GF file                                       = ts_chain.TSGFhigh
ts:   GF file reuse if found                        =    T
ts:   Electrode TSHS file                           = ./ts_n_terminal_elec_x.HSX
ts:   # atoms in electrode used / total             = 4 / 4
ts:   Electrode Bloch unity [E1 x E2 x E3]          = 1 x 1 x 1
ts:   Position in geometry                          = 1 -- 4
ts:   Semi-infinite direction for electrode         = negative wrt. E1
ts:   Chemical shift                                =    0.000000 eV
ts:   Electronic temperature                        =  299.986274 K
ts:   Gamma-only electrode                          =    T
ts:   Bulk H, S in electrode region                 =    T
ts:   Initial DM for electrodes                     = diagon
ts:   Cross-terms are updated
ts:   Manual delta-Ef shift                         =    0.000000 eV
ts:   Electrode self-energy imaginary Eta           =  0.1000E-02 eV
ts:   Electrode self-energy accuracy                =  0.1000E-12 eV
ts:   Electrode inter-layer distance (semi-inf)     =    1.2700 Ang
ts: >> low
ts:   Electrode cell pivoting: E1, E2, E3           = A1, A2, A3
ts:   GF file                                       = ts_chain.TSGFlow
ts:   GF file reuse if found                        =    T
ts:   Electrode TSHS file                           = ./ts_n_terminal_elec_x.HSX
ts:   # atoms in electrode used / total             = 4 / 4
ts:   Electrode Bloch unity [E1 x E2 x E3]          = 1 x 1 x 1
ts:   Position in geometry                          = 9 -- 12
ts:   Semi-infinite direction for electrode         = positive wrt. E1
ts:   Chemical shift                                =    0.000000 eV
ts:   Electronic temperature                        =  299.986274 K
ts:   Gamma-only electrode                          =    T
ts:   Bulk H, S in electrode region                 =    T
ts:   Initial DM for electrodes                     = diagon
ts:   Cross-terms are updated
ts:   Manual delta-Ef shift                         =    0.000000 eV
ts:   Electrode self-energy imaginary Eta           =  0.1000E-02 eV
ts:   Electrode self-energy accuracy                =  0.1000E-12 eV
ts:   Electrode inter-layer distance (semi-inf)     =    1.2700 Ang
ts:  ----------------- Contour ----------------- 
ts:            >> Residual contour << 
ts: Pole chemical potential                         =    0.0000 eV
ts:    Chemical potential temperature               =  299.9863 K
ts:    Number of poles                              =   10
ts:    Top energy point                             =    1.6243 eV
ts:          >> Equilibrium contour << 
ts: Contour name                                    =    TS.Contour.C-high
ts:   circle contour E_min                          =  -40.0000 eV
ts:   circle contour E_max                          =   -0.2585 eV
ts:   circle contour points                         =   34
ts:   circle contour method                         =    Gauss-Legendre
ts: Contour name                                    =    TS.Contour.T-high
ts:   tail contour E_min                            =   -0.2585 eV
ts:   tail contour E_max                            =     Infinity
ts:   tail contour points                           =   12
ts:   tail contour method                           =    Gauss-Fermi (0kT)
ts: **************************************************************

************************ Begin: TS CHECKS AND WARNINGS ************************
You are initializing the electrode EDM. This may result in erroneous forces on electrode atoms. Do not use forces from electrodes.
************************ End: TS CHECKS AND WARNINGS **************************


>>> TranSiesta block information for FDF-file START <<<

%block TS.ChemPots
  high
%endblock TS.ChemPots

%block TS.ChemPot.high
  mu  V
  contour.eq
   begin
    C-high
    T-high
   end
%endblock TS.ChemPot.high
%block TS.Contour.C-high
  part circle
     from -40. eV + V to -10 kT + V
      points 34
        method g-legendre
%endblock TS.Contour.C-high
%block TS.Contour.T-high
  part tail
     from prev to + inf
      points 12
        method g-fermi
%endblock TS.Contour.T-high

>>> TranSiesta block information for FDF-file END <<<


transiesta: Regions of atoms:
   ## (4): Elec.high
     [ 1 -- 4 ]
   ## (4): Elec.low
     [ 9 -- 12 ]
   -- (4): Device
     [ 5 -- 8 ]

  <sparsity:high: ./ts_n_terminal_elec_x.HSX
    nrows_g=16 nrows=16 sparsity=2.2500 nnzs=576, refcount: 3>
  <sparsity:(TM [ 0,--,--] of: high: ./ts_n_terminal_elec_x.HSX)
    nrows_g=16 nrows=16 sparsity=1.0000 nnzs=256, refcount: 3>
  <sparsity:(TM [ 1,--,--] of: high: ./ts_n_terminal_elec_x.HSX)
    nrows_g=16 nrows=16 sparsity=.6250 nnzs=160, refcount: 3>
 high principal cell is perfect!

Calculating surface Green functions for: high
 Saving surface Green functions in: ts_chain.TSGFhigh
 Estimated file size: 233.184 kB
 Lopez Sancho, Lopez Sancho & Rubio recursive surface self-energy calculation...
 Lopez Sancho, Lopez Sancho & Rubio: Mean/std iterations:     4.6429 /     1.6948
 Lopez Sancho, Lopez Sancho & Rubio: Min/Max iterations :          3 /         10
Done creating 'ts_chain.TSGFhigh'.

  <sparsity:low: ./ts_n_terminal_elec_x.HSX
    nrows_g=16 nrows=16 sparsity=2.2500 nnzs=576, refcount: 3>
  <sparsity:(TM [ 0,--,--] of: low: ./ts_n_terminal_elec_x.HSX)
    nrows_g=16 nrows=16 sparsity=1.0000 nnzs=256, refcount: 3>
  <sparsity:(TM [-1,--,--] of: low: ./ts_n_terminal_elec_x.HSX)
    nrows_g=16 nrows=16 sparsity=.6250 nnzs=160, refcount: 3>
 low principal cell is perfect!

Calculating surface Green functions for: low
 Saving surface Green functions in: ts_chain.TSGFlow
 Estimated file size: 233.184 kB
 Lopez Sancho, Lopez Sancho & Rubio recursive surface self-energy calculation...
 Lopez Sancho, Lopez Sancho & Rubio: Mean/std iterations:     4.6429 /     1.6948
 Lopez Sancho, Lopez Sancho & Rubio: Min/Max iterations :          3 /         10
Done creating 'ts_chain.TSGFlow'.


                     ====================================
                        Single-point calculation
                     ====================================

outcell: Unit cell vectors (Ang):
       17.620000    0.000000    0.000000
        0.000000   12.000000    0.000000
        0.000000    0.000000   12.000000

outcell: Cell vector modules (Ang)   :   17.620000   12.000000   12.000000
outcell: Cell angles (23,13,12) (deg):     90.0000     90.0000     90.0000
outcell: Cell volume (Ang**3)        :   2537.2800
<dSpData1D:S at geom step 0
  <sparsity:sparsity for geom step 0
    nrows_g=48 nrows=48 sparsity=.6406 nnzs=1476, refcount: 7>
  <dData1D:(new from dSpData1D) n=1476, refcount: 1>
refcount: 1>
new_DM -- step:     1
Initializing Density Matrix...

Attempting to read DM, EDM from TSDE file... Failed...
Attempting to read DM from file... Failed...
DM filled with atomic data:
<dSpData2D:DM initialized from atoms
  <sparsity:sparsity for geom step 0
    nrows_g=48 nrows=48 sparsity=.6406 nnzs=1476, refcount: 8>
  <dData2D:DM n=1476 m=1, refcount: 1>
refcount: 1>

transiesta: Initialization run using siesta

No. of atoms with KB's overlaping orbs in proc 0. Max # of overlaps:      12      20

InitMesh: MESH = 80 x 54 x 54 = 233280
InitMesh: Mesh cutoff (required, used) =    50.000    55.966 Ry
New grid distribution [1]: sub = 2
ts-Vha:  0.18697047E-08 eV

stepf: Fermi-Dirac step function
ts-Vha: -0.10795988E+01 eV

siesta: Program's energy decomposition (eV):
siesta: Ebs     =      -683.863720
siesta: Eions   =      2991.489360
siesta: Ena     =       598.900235
siesta: Ekin    =      1191.733925
siesta: Enl     =      -152.650015
siesta: Eso     =         0.000000
siesta: Edftu   =         0.000000
siesta: DEna    =        55.438150
siesta: DUscf   =         8.115880
siesta: DUext   =         0.000000
siesta: Ex      =      -457.415899
siesta: Ec      =       -69.008555
siesta: Exc     =      -526.424454
siesta: EbV     =         0.000000
siesta: eta*DQ  =         0.000000
siesta: Emadel  =         0.000000
siesta: Emeta   =         0.000000
siesta: Emolmec =         0.000000
siesta: Ekinion =         0.000000
siesta: Eharris =     -1813.268516
siesta: Etot    =     -1816.375639
siesta: FreeEng =     -1816.447305

        iscf     Eharris(eV)        E_KS(eV)     FreeEng(eV)     dDmax    Ef(eV) dHmax(eV)
   scf:    1    -1813.268516    -1816.375639    -1816.447305  1.590300 -5.834635  5.351872
timer: Routine,Calls,Time,% = IterSCF        1       0.018  10.76
ts-Vha: -0.76532982E+00 eV
   scf:    2    -1819.159269    -1817.887624    -1817.959291  0.044744 -5.868551  3.585408
ts-Vha: -0.12917185E+00 eV
   scf:    3    -1819.607240    -1819.260380    -1819.332082  0.084889 -5.994706  2.059837
ts-Vha:  0.13384584E+01 eV
   scf:    4    -1791.903330    -1811.100866    -1811.101092  0.694595 -6.352912 10.661600
ts-Vha:  0.93386784E+00 eV
   scf:    5    -1817.621189    -1814.599612    -1814.631803  0.067814 -6.552476  7.946377
ts-Vha: -0.92365049E+00 eV
   scf:    6    -1807.594489    -1817.703262    -1817.774941  0.626876 -6.919498  4.750966
ts-Vha:  0.13896653E+01 eV
   scf:    7    -1788.791621    -1811.902889    -1811.903128  0.699261 -6.854842 10.371289
ts-Vha:  0.13915341E+01 eV
   scf:    8    -1811.294082    -1811.615325    -1811.615569  0.032111 -6.740982 10.119769
ts-Vha:  0.11724798E+01 eV
   scf:    9    -1815.587239    -1813.696211    -1813.698187  0.047242 -7.104621  8.669880
ts-Vha:  0.10967586E+01 eV
   scf:   10    -1815.022205    -1814.372980    -1814.389966  0.029289 -7.162503  8.326957
ts-Vha:  0.99114691E+00 eV
   scf:   11    -1815.743968    -1815.077691    -1815.102551  0.038301 -7.233678  7.327552
ts-Vha: -0.25233604E+00 eV
   scf:   12    -1818.564823    -1819.620505    -1819.719179  0.452287 -7.288851  1.119846
ts-Vha:  0.10627225E+01 eV
   scf:   13    -1802.636612    -1814.306980    -1814.310701  0.469392 -7.127745  7.652998
ts-Vha:  0.98566717E+00 eV
   scf:   14    -1815.479131    -1814.902597    -1814.915446  0.015787 -7.160975  7.148709
ts-Vha:  0.10613424E+01 eV
   scf:   15    -1813.769249    -1814.344790    -1814.350101  0.016492 -7.125187  7.544908
ts-Vha:  0.10371584E+01 eV
   scf:   16    -1814.835893    -1814.594855    -1814.597560  0.014257 -7.159811  7.389499
ts-Vha:  0.77241629E+00 eV
   scf:   17    -1818.189849    -1816.509395    -1816.548534  0.076487 -7.275074  5.619914
ts-Vha:  0.11503521E+01 eV
   scf:   18    -1810.461547    -1813.716874    -1813.717124  0.087290 -6.947265  8.210068
ts-Vha: -0.12533777E+01 eV
   scf:   19    -1796.131346    -1815.089199    -1815.160869  0.694629 -7.405878  8.165666
ts-Vha: -0.63554553E+00 eV
   scf:   20    -1820.899927    -1818.548318    -1818.624385  0.095830 -7.259598  3.692905
ts-Vha: -0.68438343E+00 eV
   scf:   21    -1818.207305    -1818.381412    -1818.453380  0.010628 -7.260986  3.934882
ts-Vha: -0.64634195E+00 eV
   scf:   22    -1818.668666    -1818.527719    -1818.599713  0.009274 -7.277763  3.700142
ts-Vha: -0.17081056E-01 eV
   scf:   23    -1819.398897    -1819.716132    -1819.814857  0.225136 -7.288322  0.547260
ts-Vha:  0.28750128E+00 eV
   scf:   24    -1818.314508    -1819.195177    -1819.288514  0.124085 -7.271701  2.594933
ts-Vha:  0.89510124E+00 eV
   scf:   25    -1811.281698    -1815.964607    -1816.010188  0.245108 -7.244371  6.347647
ts-Vha: -0.49672738E+00 eV
   scf:   26    -1814.537949    -1819.067276    -1819.150073  0.552114 -7.296667  2.709225
ts-Vha: -0.38603463E+00 eV
   scf:   27    -1819.637342    -1819.375999    -1819.465689  0.041051 -7.291793  1.976258
ts-Vha: -0.15904852E+00 eV
   scf:   28    -1819.848012    -1819.713514    -1819.810941  0.088343 -7.283854  0.500259
ts-Vha: -0.36343421E+00 eV
   scf:   29    -1818.977034    -1819.427824    -1819.518623  0.079845 -7.291217  1.834042
ts-Vha: -0.11447946E+00 eV
   scf:   30    -1819.792013    -1819.732190    -1819.830285  0.097141 -7.284369  0.222761
ts-Vha: -0.10620540E+00 eV
   scf:   31    -1819.735380    -1819.733970    -1819.832154  0.004316 -7.285379  0.172837
ts-Vha:  0.73005017E-01 eV
   scf:   32    -1819.415976    -1819.638320    -1819.736637  0.070858 -7.279083  1.046244
ts-Vha: -0.19336129E+00 eV
   scf:   33    -1819.455222    -1819.687950    -1819.784611  0.107177 -7.288490  0.754756
ts-Vha: -0.12051498E+00 eV
   scf:   34    -1819.751929    -1819.730369    -1819.828336  0.028118 -7.285608  0.274384
ts-Vha: -0.10506052E+00 eV
   scf:   35    -1819.736745    -1819.734023    -1819.832188  0.006408 -7.285121  0.166415
ts-Vha: -0.84118637E-01 eV
   scf:   36    -1819.736072    -1819.735945    -1819.834332  0.008931 -7.284607  0.016782
ts-Vha: -0.83894323E-01 eV
   scf:   37    -1819.735964    -1819.735955    -1819.834338  0.000233 -7.284971  0.015753
ts-Vha: -0.83680248E-01 eV
   scf:   38    -1819.735959    -1819.735957    -1819.834341  0.000160 -7.285154  0.012500
ts-Vha: -0.80773574E-01 eV
   scf:   39    -1819.735884    -1819.735937    -1819.834344  0.001124 -7.285140  0.009360
ts-Vha: -0.82578078E-01 eV
   scf:   40    -1819.735968    -1819.735959    -1819.834351  0.000740 -7.285203  0.005121
ts-Vha: -0.82318538E-01 eV
   scf:   41    -1819.735961    -1819.735960    -1819.834352  0.000072 -7.285010  0.002827
ts-Vha: -0.82260132E-01 eV
   scf:   42    -1819.735962    -1819.735961    -1819.834352  0.000038 -7.284925  0.002143
ts-Vha: -0.81820332E-01 eV
   scf:   43    -1819.735961    -1819.735961    -1819.834353  0.000100 -7.284826  0.001122
ts-Vha: -0.81832899E-01 eV
   scf:   44    -1819.735961    -1819.735961    -1819.834353  0.000003 -7.284816  0.001041
ts-Vha: -0.81952844E-01 eV
   scf:   45    -1819.735961    -1819.735961    -1819.834353  0.000024 -7.284747  0.000257

SCF Convergence by DM+H criterion
max |DM_out - DM_in|         :     0.0000243717
max |H_out - H_in|      (eV) :     0.0002571126
SCF cycle converged after 45 iterations

                     ***************************
                     *  WELCOME TO TRANSIESTA  *
                     ***************************


*** WARNING! Removed 320 elements which connect electrodes across the device region!

transiesta: We cannot assure cross-boundary connections in Gamma calculations.
transiesta: Ensure that the electrode says: Principal cell is perfect

transiesta: created H and S sparsity pattern:
  <sparsity:(M of: (UC of: T T T sparsity for geom step 0))
    nrows_g=48 nrows=48 sparsity=.2795 nnzs=644, refcount: 1>

transiesta: update sparsity pattern same as H and S.

*** WARNING! Removed 320 elements which connect electrodes across the device region!


transiesta: Determining an optimal tri-matrix using: atom+high
transiesta: Established a near-optimal partition for the tri-diagonal matrix.
BTD partitions (4): 
  [ 8, [12]*2, 16 ]
transiesta: Matrix elements in % of full matrix:  58.33333 %

transiesta: [memory] electrodes (static):             8.000 kB
transiesta: [memory] global update arrays (static):   20.125 kB
transiesta: [memory] tri-diagonal matrices:           42.000 kB
transiesta: [memory] total:                           70.125 kB

transiesta: Charge distribution, target =     48.00000
Total charge                  [Q]  :     48.00000
Device                        [D]  :     14.78311
high                          [E1] :    14.62328
high                 / device [C1] :     1.29963
low                           [E2] :    14.62346
low                  / device [C2] :     1.29930
Other                         [O]  :      1.37122
Excess charge                [dQ]  : -2.13163E-14

ts-q:         D        E1        C1        E2        C2         dQ
ts-q:    14.603    14.623     1.315    14.623     1.315 -0.148E+00
ts-Vha:  0.17302757E-01 eV

siesta: Program's energy decomposition (eV):
siesta: Ebs     =      -724.318727
siesta: Eions   =      2991.489360
siesta: Ena     =       598.900235
siesta: Ekin    =      1194.373878
siesta: Enl     =      -156.173790
siesta: Eso     =         0.000000
siesta: Edftu   =         0.000000
siesta: DEna    =        57.108988
siesta: DUscf   =         3.451322
siesta: DUext   =         0.000000
siesta: Ex      =      -455.509215
siesta: Ec      =       -68.771344
siesta: Exc     =      -524.280559
siesta: EbV     =         0.000000
siesta: eta*DQ  =         0.000000
siesta: Emadel  =         0.000000
siesta: Emeta   =         0.000000
siesta: Emolmec =         0.000000
siesta: Ekinion =         0.000000
siesta: Eharris =     -1816.418127
siesta: Etot    =     -1818.109285
siesta: FreeEng =     -1818.109285
ts: E-dN      =         0.000000
ts: Band Stru =      -250.772742
ts: Kinetic   =       404.258276
ts: Ion-elec  =     -6827.724238
ts: Eharris   =     -2490.623636
ts: Etot      =     -2492.314794
ts: FreeEng   =     -2492.314794

        iscf     Eharris(eV)        E_KS(eV)     FreeEng(eV)     dDmax    Ef(eV) dHmax(eV)
ts-scf:    1    -2490.623636    -2492.314794    -2492.314794  0.056943 -7.284747  0.900276
timer: Routine,Calls,Time,% = TS             1       0.034   3.42
ts-q:         D        E1        C1        E2        C2         dQ
ts-q:    15.023    14.623     1.308    14.623     1.308  0.257E+00
ts-Vha: -0.30845275E+00 eV
ts-scf:    2    -2497.040921    -2495.035870    -2495.035870  0.123191 -7.284747  2.255071
ts-q:         D        E1        C1        E2        C2         dQ
ts-q:    14.452    14.623     1.317    14.623     1.316 -0.297E+00
ts-Vha:  0.14500578E+00 eV
ts-scf:    3    -2485.956891    -2491.127515    -2491.127515  0.179882 -7.284747  2.080580
ts-q:         D        E1        C1        E2        C2         dQ
ts-q:    14.911    14.623     1.308    14.623     1.308  0.145E+00
ts-Vha: -0.20277862E+00 eV
ts-scf:    4    -2497.528770    -2494.698983    -2494.698983  0.129181 -7.284747  1.217155
ts-q:         D        E1        C1        E2        C2         dQ
ts-q:    14.696    14.623     1.311    14.623     1.311 -0.648E-01
ts-Vha: -0.31317667E-01 eV
ts-scf:    5    -2491.673269    -2493.268026    -2493.268026  0.069994 -7.284747  0.440444
ts-q:         D        E1        C1        E2        C2         dQ
ts-q:    14.914    14.623     1.306    14.623     1.306  0.143E+00
ts-Vha: -0.20199229E+00 eV
ts-scf:    6    -2495.905572    -2494.690418    -2494.690418  0.064589 -7.284747  1.216193
ts-q:         D        E1        C1        E2        C2         dQ
ts-q:    13.847    14.623     1.317    14.623     1.317 -0.901E+00
ts-Vha:  0.65221115E+00 eV
ts-scf:    7    -2468.775456    -2484.173383    -2484.173383  0.356134 -7.284747  6.853986
ts-q:         D        E1        C1        E2        C2         dQ
ts-q:    14.660    14.623     1.308    14.623     1.308 -0.106E+00
ts-Vha:  0.21258323E-02 eV
ts-scf:    8    -2499.308463    -2492.957530    -2492.957530  0.269402 -7.284747  0.723296
ts-q:         D        E1        C1        E2        C2         dQ
ts-q:    14.842    14.623     1.307    14.623     1.306  0.731E-01
ts-Vha: -0.14480505E+00 eV
ts-scf:    9    -2495.447129    -2494.278243    -2494.278243  0.060834 -7.284747  0.672871
ts-q:         D        E1        C1        E2        C2         dQ
ts-q:    14.793    14.623     1.307    14.623     1.307  0.252E-01
ts-Vha: -0.10559271E+00 eV
ts-scf:   10    -2493.628006    -2493.955090    -2493.955090  0.016522 -7.284747  0.299276
ts-q:         D        E1        C1        E2        C2         dQ
ts-q:    14.772    14.623     1.307    14.623     1.307  0.386E-02
ts-Vha: -0.88218431E-01 eV
ts-scf:   11    -2493.652946    -2493.803957    -2493.803957  0.006905 -7.284747  0.134206
ts-q:         D        E1        C1        E2        C2         dQ
ts-q:    14.803    14.623     1.307    14.623     1.306  0.344E-01
ts-Vha: -0.11312315E+00 eV
ts-scf:   12    -2494.230529    -2494.020720    -2494.020720  0.009734 -7.284747  0.370746
ts-q:         D        E1        C1        E2        C2         dQ
ts-q:    14.743    14.623     1.308    14.623     1.307 -0.237E-01
ts-Vha: -0.65771981E-01 eV
ts-scf:   13    -2493.176612    -2493.603157    -2493.603157  0.018589 -7.284747  0.079400
ts-q:         D        E1        C1        E2        C2         dQ
ts-q:    14.757    14.623     1.308    14.623     1.307 -0.105E-01
ts-Vha: -0.76488368E-01 eV
ts-scf:   14    -2493.794394    -2493.699608    -2493.699608  0.004303 -7.284747  0.022578
ts-q:         D        E1        C1        E2        C2         dQ
ts-q:    14.748    14.623     1.308    14.623     1.307 -0.186E-01
ts-Vha: -0.69872193E-01 eV
ts-scf:   15    -2493.581510    -2493.640402    -2493.640402  0.002631 -7.284747  0.040432
ts-q:         D        E1        C1        E2        C2         dQ
ts-q:    14.753    14.623     1.308    14.623     1.307 -0.139E-01
ts-Vha: -0.73748663E-01 eV
ts-scf:   16    -2493.709455    -2493.675147    -2493.675147  0.001570 -7.284747  0.003665
ts-q:         D        E1        C1        E2        C2         dQ
ts-q:    14.756    14.623     1.308    14.623     1.307 -0.109E-01
ts-Vha: -0.76164696E-01 eV
ts-scf:   17    -2493.719474    -2493.697440    -2493.697440  0.000973 -7.284747  0.019329
ts-q:         D        E1        C1        E2        C2         dQ
ts-q:    14.754    14.623     1.308    14.623     1.307 -0.134E-01
ts-Vha: -0.74129991E-01 eV
ts-scf:   18    -2493.661272    -2493.679276    -2493.679276  0.000823 -7.284747  0.000055
ts-q:         D        E1        C1        E2        C2         dQ
ts-q:    14.754    14.623     1.308    14.623     1.307 -0.134E-01
ts-Vha: -0.74112680E-01 eV
ts-scf:   19    -2493.679037    -2493.679155    -2493.679155  0.000007 -7.284747  0.000176

SCF Convergence by DM+H+dQ criterion
max |DM_out - DM_in|         :     0.0000065669
max |H_out - H_in|      (eV) :     0.0001760303
     Q(TS) - Q(dev)          :    -0.0134220467
SCF cycle converged after 19 iterations

Using DM_out to compute the final energy and forces
No. of atoms with KB's overlaping orbs in proc 0. Max # of overlaps:      12      20
ts-Vha: -0.74112680E-01 eV

siesta: E_KS(eV) =            -1819.4736

siesta: E_KS - E_eggbox =     -1819.4736

siesta: Atomic forces (eV/Ang):
     1    1.233226    0.000000    0.031045
     2   -1.288562   -0.000000    0.028279
     3    1.702553   -0.000000    0.031747
     4   -2.755718    0.000000    0.023986
     5   -0.138762   -0.000000    0.037960
     6    6.486921   -0.000000   -0.004197
     7   -6.376773   -0.000000   -0.003690
     8    0.035160   -0.000000    0.037257
     9    2.694787    0.000000    0.025110
    10   -1.606133    0.000000    0.032265
    11    1.362498    0.000000    0.027624
    12   -1.318761    0.000000    0.030334
----------------------------------------
   Tot    0.030437    0.000000    0.297721
----------------------------------------
   Max    6.486921
   Res    1.747096    sqrt( Sum f_i^2 / 3N )
----------------------------------------
   Max    6.486921    constrained

ts: Atomic forces (eV/Ang):
     1    0.000000    0.000000    0.000000
     2    0.000000    0.000000    0.000000
     3    0.000000    0.000000    0.000000
     4    0.000000    0.000000    0.000000
     5   -0.138762   -0.000000    0.037960
     6    6.486921   -0.000000   -0.004197
     7   -6.376773   -0.000000   -0.003690
     8    0.035160   -0.000000    0.037257
     9    0.000000    0.000000    0.000000
    10    0.000000    0.000000    0.000000
    11    0.000000    0.000000    0.000000
    12    0.000000    0.000000    0.000000
----------------------------------------
   Tot    0.006547   -0.000000    0.067330
----------------------------------------
   Max    6.486921
   Res    1.857044    sqrt( Sum f_i^2 / 3N )
----------------------------------------
   Max    6.486921    constrained

Stress tensor Voigt[x,y,z,yz,xz,xy] (kbar):      -41.92        0.16        0.14       -0.00        0.00        0.00
(Free)E + p*V (eV/cell)    -1797.5089
Target enthalpy (eV/cell)    -1819.4736

mulliken: Atomic and Orbital Populations:

Species: C                   
Atom  Qatom  Qorb
               2s      2py     2pz     2px     
   1  4.000   0.843   1.001   1.002   1.153
   2  3.986   0.853   0.986   0.986   1.160
   3  4.015   0.833   1.019   1.019   1.144
   4  3.962   0.881   0.954   0.955   1.172
   5  4.120   0.857   1.074   1.074   1.116
   6  3.911   1.588   0.596   0.597   1.130
   7  3.910   1.588   0.597   0.597   1.128
   8  4.120   0.857   1.073   1.074   1.116
   9  3.963   0.880   0.954   0.955   1.173
  10  4.015   0.833   1.019   1.019   1.144
  11  3.986   0.854   0.986   0.987   1.159
  12  3.999   0.843   1.001   1.002   1.153

mulliken: Qtot =       47.987

Mulliken Atomic Populations:
Atom #   charge [q] valence [e]  Species
     1     0.000303    3.999697  C
     2     0.014079    3.985921  C
     3    -0.014829    4.014829  C
     4     0.037726    3.962274  C
     5    -0.120115    4.120115  C
     6     0.089238    3.910762  C
     7     0.089640    3.910360  C
     8    -0.119879    4.119879  C
     9     0.037009    3.962991  C
    10    -0.014851    4.014851  C
    11     0.014475    3.985525  C
    12     0.000625    3.999375  C
--------------------
 Total     0.013422

transiesta: Charge distribution, target =     48.00000
Total charge                  [Q]  :     47.98658
Device                        [D]  :     14.75361
high                          [E1] :    14.62328
high                 / device [C1] :     1.30766
low                           [E2] :    14.62346
low                  / device [C2] :     1.30734
Other                         [O]  :      1.37122
Excess charge                [dQ]  : -1.34220E-02


siesta: Program's energy decomposition (eV):
siesta: Ebs     =      -708.418717
siesta: Eions   =      2991.489360
siesta: Ena     =       598.900235
siesta: Ekin    =      1198.558528
siesta: Enl     =      -156.860247
siesta: Eso     =         0.000000
siesta: Edftu   =         0.000000
siesta: DEna    =        54.363013
siesta: DUscf   =         3.219362
siesta: DUext   =         0.000000
siesta: Ex      =      -457.177224
siesta: Ec      =       -68.987954
siesta: Exc     =      -526.165178
siesta: EbV     =         0.000000
siesta: eta*DQ  =         0.000000
siesta: Emadel  =         0.000000
siesta: Emeta   =         0.000000
siesta: Emolmec =         0.000000
siesta: Ekinion =         0.000000
siesta: Eharris =     -1819.473528
siesta: Etot    =     -1819.473647
siesta: FreeEng =     -1819.473647
ts: E-dN      =         0.000000
ts: Band Stru =      -239.450864
ts: Kinetic   =       408.442926
ts: Ion-elec  =     -6849.239114
ts: Eharris   =     -2493.679037
ts: Etot      =     -2493.679155
ts: FreeEng   =     -2493.679155

siesta: Final energy (eV):
siesta:  Band Struct. =    -708.418717
siesta:       Kinetic =    1198.558528
siesta:       Hartree =    2872.909714
siesta:         Edftu =       0.000000
siesta:       Eso     =       0.000000
siesta:    Ext. field =       0.000000
siesta:         Exch. =    -457.177224
siesta:         Corr. =     -68.987954
siesta:     Bulk bias =       0.000000
siesta:   Exch.-corr. =    -526.165178
siesta:  Ion-electron =   -6965.149207
siesta:       Ion-ion =    1600.372496
siesta:       Ekinion =       0.000000
siesta: D3 dispersion =       0.000000
siesta:         Total =   -1819.473647
ts:         E-dN  =       0.000000
ts:     Band Stru =    -239.450864
ts:       Kinetic =     408.442926
ts:      Ion-elec =   -6849.239114
ts:         Total =   -2493.679155
siesta:         Fermi =      -7.284747

siesta: Atomic forces (eV/Ang):
siesta:      1    1.233226    0.000000    0.031045
siesta:      2   -1.288562   -0.000000    0.028279
siesta:      3    1.702553   -0.000000    0.031747
siesta:      4   -2.755718    0.000000    0.023986
siesta:      5   -0.138762   -0.000000    0.037960
siesta:      6    6.486921   -0.000000   -0.004197
siesta:      7   -6.376773   -0.000000   -0.003690
siesta:      8    0.035160   -0.000000    0.037257
siesta:      9    2.694787    0.000000    0.025110
siesta:     10   -1.606133    0.000000    0.032265
siesta:     11    1.362498    0.000000    0.027624
siesta:     12   -1.318761    0.000000    0.030334
siesta: ----------------------------------------
siesta:    Tot    0.030437    0.000000    0.297721

ts: Atomic forces (eV/Ang):
ts:      1    0.000000    0.000000    0.000000
ts:      2    0.000000    0.000000    0.000000
ts:      3    0.000000    0.000000    0.000000
ts:      4    0.000000    0.000000    0.000000
ts:      5   -0.138762   -0.000000    0.037960
ts:      6    6.486921   -0.000000   -0.004197
ts:      7   -6.376773   -0.000000   -0.003690
ts:      8    0.035160   -0.000000    0.037257
ts:      9    0.000000    0.000000    0.000000
ts:     10    0.000000    0.000000    0.000000
ts:     11    0.000000    0.000000    0.000000
ts:     12    0.000000    0.000000    0.000000
ts: ----------------------------------------
ts:    Tot    0.006547   -0.000000    0.067330

siesta: Stress tensor (static) (eV/Ang**3):
siesta:    -0.026164    0.000000    0.000001
siesta:     0.000000    0.000103    0.000000
siesta:     0.000001   -0.000000    0.000090

siesta: Cell volume =       2537.280000 Ang**3

siesta: Pressure (static):
siesta:                Solid            Molecule  Units
siesta:           0.00009428          0.00012340  Ry/Bohr**3
siesta:           0.00865680          0.01132998  eV/Ang**3
siesta:          13.86971933         18.15263567  kBar
(Free)E+ p_basis*V_orbitals  =       -1817.758283
(Free)Eharris+ p_basis*V_orbitals  =       -1817.758164

mulliken: Atomic and Orbital Populations:

Species: C                   
Atom  Qatom  Qorb
               2s      2py     2pz     2px     
   1  4.000   0.843   1.001   1.002   1.153
   2  3.986   0.853   0.986   0.986   1.160
   3  4.015   0.833   1.019   1.019   1.144
   4  3.962   0.881   0.954   0.955   1.172
   5  4.120   0.857   1.074   1.074   1.116
   6  3.911   1.588   0.596   0.597   1.130
   7  3.910   1.588   0.597   0.597   1.128
   8  4.120   0.857   1.073   1.074   1.116
   9  3.963   0.880   0.954   0.955   1.173
  10  4.015   0.833   1.019   1.019   1.144
  11  3.986   0.854   0.986   0.987   1.159
  12  3.999   0.843   1.001   1.002   1.153

mulliken: Qtot =       47.987

Mulliken Atomic Populations:
Atom #   charge [q] valence [e]  Species
     1     0.000303    3.999697  C
     2     0.014079    3.985921  C
     3    -0.014829    4.014829  C
     4     0.037726    3.962274  C
     5    -0.120115    4.120115  C
     6     0.089238    3.910762  C
     7     0.089640    3.910360  C
     8    -0.119879    4.119879  C
     9     0.037009    3.962991  C
    10    -0.014851    4.014851  C
    11     0.014475    3.985525  C
    12     0.000625    3.999375  C
--------------------
 Total     0.013422

siesta: Electric dipole (a.u.)  =    0.000000   -0.000000    0.000317
siesta: Electric dipole (Debye) =    0.000000   -0.000000    0.000806

cite: Please see "ts_chain.bib" for an exhaustive BiBTeX file.
cite: Please clearly indicate Siesta version in published work: 5.2.0-12-gcf4f59232
cite: This calculation has made use of the following articles
cite: which are encouraged to be cited in a published work.
        Primary SIESTA paper
          DOI: www.doi.org/10.1088/0953-8984/14/11/302
        Primary TranSiesta paper
          DOI: www.doi.org/10.1103/PhysRevB.65.165401
        TranSiesta N-electrode
          DOI: www.doi.org/10.1016/j.cpc.2016.09.022


timer: Elapsed wall time (sec) =       1.996
timer: CPU execution times (sec):

Routine            Calls   Time/call    Tot.time        %
siesta                 1       1.994       1.994   100.00
Setup                  1       0.093       0.093     4.68
bands                  1       0.000       0.000     0.00
KSV_init               1       0.000       0.000     0.00
TS_SE                  2       0.025       0.051     2.54
IterGeom               1       1.900       1.900    95.29
geom_init              1       0.055       0.055     2.77
state_init             1       0.003       0.003     0.13
hsparse                1       0.000       0.000     0.00
overlap                1       0.002       0.002     0.10
Setup_H0               1       0.035       0.035     1.76
naefs                  2       0.000       0.000     0.01
dnaefs                 2       0.000       0.000     0.00
MolMec                 2       0.000       0.000     0.00
kinefsm                2       0.001       0.002     0.09
nlefsm                 2       0.005       0.010     0.50
DHSCF_Init             1       0.024       0.024     1.22
DHSCF1                 1       0.001       0.001     0.07
InitMesh               1       0.001       0.001     0.07
INITMESH               1       0.000       0.000     0.00
DHSCF2                 1       0.023       0.023     1.14
REMESH                 1       0.001       0.001     0.04
REORD                140       0.000       0.026     1.30
PHION                  1       0.010       0.010     0.51
COMM_BSC             267       0.000       0.039     1.94
POISON                67       0.007       0.456    22.86
fft                  134       0.002       0.296    14.82
setup_H               65       0.017       1.123    56.34
DHSCF                 66       0.017       1.146    57.47
DHSCF3                66       0.017       1.124    56.37
rhoofd                66       0.001       0.096     4.81
XC                    66       0.005       0.298    14.95
GXC-CellXC            66       0.004       0.246    12.36
gridxc@cellXC         66       0.004       0.246    12.34
vmat                  66       0.001       0.085     4.24
IterSCF               64       0.028       1.803    90.42
compute_dm            64       0.011       0.686    34.41
diagon                45       0.001       0.028     1.42
r-eigvec              45       0.001       0.024     1.19
r-buildHS             45       0.000       0.000     0.01
rdiag                 45       0.001       0.023     1.18
rdiag1                45       0.000       0.012     0.61
rdiag2                45       0.000       0.002     0.08
rdiag3                45       0.000       0.009     0.45
rdiag4                45       0.000       0.000     0.02
r-buildD              45       0.000       0.004     0.19
MIXER                 62       0.000       0.004     0.20
TS_init                1       0.000       0.000     0.02
pivot                  1       0.000       0.000     0.00
TS-rgn2tri             1       0.000       0.000     0.00
TS                    19       0.035       0.657    32.95
ts_expand           2128       0.000       0.001     0.05
TM_inv              1064       0.001       0.610    30.60
PostSCF                1       0.041       0.041     2.03
FINAL_HF               1       0.041       0.041     2.03
DHSCF4                 1       0.022       0.022     1.10
dfscf                  1       0.017       0.017     0.87
overfsm                1       0.000       0.000     0.01
writeHSX               1       0.000       0.000     0.00
state_analysis         1       0.000       0.000     0.01
siesta_move            1       0.000       0.000     0.00
Analysis               1       0.000       0.000     0.02
optical                1       0.000       0.000     0.00
  

>> End of run:  15-JAN-2025  15:35:43
Job completed
