Executable      : /home/fnpedron/Siesta/siesta-dev/_build_serial/Src/siesta
Version         : 5.4.0-42-g45ae6a53d
Architecture    : x86_64
Compiler version: GNU-13.3.0
Compiler flags  : -fallow-argument-mismatch -O3 -march=native
Environment variables: 
  SIESTA_PS_PATH: /home/fnpedron/Siesta/siesta-dev/Tests/Pseudos
Parallelisations: none
NetCDF support
NetCDF-4 support
Lua support
DFT-D3 support

Runtime information:
* Directory : /home/fnpedron/Siesta/siesta-dev/_build_serial/Util/QMMM-driver/Tests/WaterDimer/WaterDimer
* Running in serial mode.
>> Start of run:   5-SEP-2025  14:33:05

                           *********************** 
                           *  WELCOME TO SIESTA  * 
                           *********************** 

 NOTE: Siesta V5 introduces some new defaults for basis-set generation
 NOTE: which might lead to slightly different numerical results.
 NOTE: Please see the manual for full details and compatibility measures.


reinit: Reading from file ../WaterDimer.siestain.fdf

reinit: -----------------------------------------------------------------------
reinit: System Name: WaterDimer.siesta
reinit: -----------------------------------------------------------------------
reinit: System Label: WaterDimer.siesta
reinit: -----------------------------------------------------------------------

initatom: Reading input for the pseudopotentials and atomic orbitals ----------
Species number:   1 Atomic number:    1 Label: H
Species number:   2 Atomic number:    8 Label: O

Ground state valence configuration (from tables):   1s01  2p00  3d00  4f00
Ground state valence configuration (from tables):   2s02  2p04  3d00  4f00

---- Processing specs for species: H
Reading pseudopotential information in formatted form from:
  /home/fnpedron/Siesta/siesta-dev/Tests/Pseudos/H.psf

---- Processing specs for species: O
Reading pseudopotential information in formatted form from:
  /home/fnpedron/Siesta/siesta-dev/Tests/Pseudos/O.psf

---- Pseudopotential check for H 

Pseudized shells:
1s( 1.00) rc: 1.25
2p( 0.00) rc: 1.25
3d( 0.00) rc: 1.25
4f( 0.00) rc: 1.25
Valence configuration for ps generation: (assumed as above)

---- Pseudopotential check for O 

Pseudized shells:
2s( 2.00) rc: 1.14
2p( 4.00) rc: 1.14
3d( 0.00) rc: 1.14
4f( 0.00) rc: 1.14
Valence configuration for ps generation: (assumed as above)
For H, standard SIESTA heuristics set lmxkb to 2
 (one more than the basis l, including polarization orbitals).
Use PS.lmax or PS.KBprojectors blocks to override.
For O, standard SIESTA heuristics set lmxkb to 3
 (one more than the basis l, including polarization orbitals).
Use PS.lmax or PS.KBprojectors blocks to override.

<basis_specs>
===============================================================================
H                    Z=   1    Mass=  1.0080        Charge= 0.17977+309
Lmxo=1 Lmxkb= 2    BasisType=split      Semic=F
L=0  Nsemic=0  Cnfigmx=1
          i=1  nzeta=2  polorb=1  (1s)  (to be polarized perturbatively)
            splnorm:   0.15000    
               vcte:    40.000    
               rinn:  -0.90000    
               qcoe:    0.0000    
               qyuk:    0.0000    
               qwid:   0.10000E-01
                rcs:    0.0000      0.0000    
            lambdas:    1.0000      1.0000    
L=1  Nsemic=0  Cnfigmx=2
          i=1  nzeta=0  polorb=0  (2p)  (perturbative polarization orbital) (from 1s)
-------------------------------------------------------------------------------
L=0  Nkbl=1  erefs: 0.17977+309
L=1  Nkbl=1  erefs: 0.17977+309
L=2  Nkbl=1  erefs: 0.17977+309
===============================================================================
</basis_specs>

Using PAO.SplitTailNorm
atom: Called for H                     (Z =   1)
Maximum radius (at nrval) set to   50.00000 8518

read_vps: Pseudopotential generation method:
read_vps: ATM3      Troullier-Martins                       
Valence charge in pseudo generation:    1.00000

xc_check: Exchange-correlation functional:
xc_check: Ceperley-Alder
V l=0 = -2*Zval/r beyond r=  1.2384
V l=1 = -2*Zval/r beyond r=  1.2321
V l=2 = -2*Zval/r beyond r=  1.2272
All V_l potentials equal beyond r=  1.2371
This should be close to max(r_c) in ps generation
All pots = -2*Zval/r beyond r=  1.2384
Using small-core scheme (local charge) for Vlocal

VLOCAL_FROM_CHLOCAL: 99.0% of the norm of Vloc inside     28.363 Ry
VLOCAL_FROM_CHLOCAL: 99.9% of the norm of Vloc inside     64.639 Ry
atom: Maximum radius for chlocal:    1.44620
atom: Maximum radius for r*vlocal+2*Zval:    1.31026

KBgen: Kleinman-Bylander projectors: 
GHOST: No ghost state for L =  0
   l= 0   rc=  1.364142   el= -0.467325   Ekb= -2.009475   kbcos= -0.336680
GHOST: No ghost state for L =  1
   l= 1   rc=  1.430269   el=  0.007562   Ekb= -0.503817   kbcos= -0.022554
GHOST: No ghost state for L =  2
   l= 2   rc=  1.469686   el=  0.013286   Ekb= -0.191752   kbcos= -0.002430

KBgen: Total number of Kleinman-Bylander projectors:   9
atom: -------------------------------------------------------------------------

atom: SANKEY-TYPE ORBITALS:
atom: Selected multiple-zeta basis: split     

SPLIT: Orbitals with angular momentum L= 0

SPLIT: Basis orbitals for state 1s

SPLIT: PAO cut-off radius determined from an
SPLIT: energy shift=  0.010000 Ry
Split based on tail norm

   izeta = 1
                 lambda =    1.000000
                     rc =    5.285354
                 energy =   -0.456120
                kinetic =    0.900445
    potential(screened) =   -1.356565
       potential(ionic) =   -1.890080

   izeta = 2
                 rmatch =    3.582433
              splitnorm =    0.150000
                 energy =   -0.289774
                kinetic =    1.649095
    potential(screened) =   -1.938868
       potential(ionic) =   -2.516427

POLgen: Perturbative polarization orbital with L=  1

POLgen: Polarization orbital for state 1s
Split based on tail norm

   izeta = 1
                     rc =    5.285354
                 energy =    0.642323
                kinetic =    1.282472
    potential(screened) =   -0.640149
       potential(ionic) =   -1.117275
atom: Total number of Sankey-type orbitals:  5

atm_pop: Valence configuration (for local Pseudopot. screening):
 1s( 1.00)                                                            
 2p( 0.00)                                                            
Vna: chval, zval:    1.00000   1.00000

Vna:  Cut-off radius for the neutral-atom potential:   5.285354

atom: _________________________________________________________________________

<basis_specs>
===============================================================================
O                    Z=   8    Mass=  15.999        Charge= 0.17977+309
Lmxo=2 Lmxkb= 3    BasisType=split      Semic=F
L=0  Nsemic=0  Cnfigmx=2
          i=1  nzeta=2  polorb=0  (2s)
            splnorm:   0.15000    
               vcte:    40.000    
               rinn:  -0.90000    
               qcoe:    0.0000    
               qyuk:    0.0000    
               qwid:   0.10000E-01
                rcs:    0.0000      0.0000    
            lambdas:    1.0000      1.0000    
L=1  Nsemic=0  Cnfigmx=2
          i=1  nzeta=2  polorb=1  (2p)  (to be polarized perturbatively)
            splnorm:   0.15000    
               vcte:    40.000    
               rinn:  -0.90000    
               qcoe:    0.0000    
               qyuk:    0.0000    
               qwid:   0.10000E-01
                rcs:    0.0000      0.0000    
            lambdas:    1.0000      1.0000    
L=2  Nsemic=0  Cnfigmx=3
          i=1  nzeta=0  polorb=0  (3d)  (perturbative polarization orbital) (from 2p)
-------------------------------------------------------------------------------
L=0  Nkbl=1  erefs: 0.17977+309
L=1  Nkbl=1  erefs: 0.17977+309
L=2  Nkbl=1  erefs: 0.17977+309
L=3  Nkbl=1  erefs: 0.17977+309
===============================================================================
</basis_specs>

Using PAO.SplitTailNorm
atom: Called for O                     (Z =   8)
Maximum radius (at nrval) set to   50.00000 8518

read_vps: Pseudopotential generation method:
read_vps: ATM3      Troullier-Martins                       
Valence charge in pseudo generation:    6.00000

xc_check: Exchange-correlation functional:
xc_check: Ceperley-Alder
V l=0 = -2*Zval/r beyond r=  1.1366
V l=1 = -2*Zval/r beyond r=  1.1332
V l=2 = -2*Zval/r beyond r=  1.1298
V l=3 = -2*Zval/r beyond r=  1.1264
All V_l potentials equal beyond r=  1.1355
This should be close to max(r_c) in ps generation
All pots = -2*Zval/r beyond r=  1.1366
Using small-core scheme (local charge) for Vlocal

VLOCAL_FROM_CHLOCAL: 99.0% of the norm of Vloc inside     33.667 Ry
VLOCAL_FROM_CHLOCAL: 99.9% of the norm of Vloc inside     76.727 Ry
atom: Maximum radius for chlocal:    1.37241
atom: Maximum radius for r*vlocal+2*Zval:    1.25469

KBgen: Kleinman-Bylander projectors: 
GHOST: No ghost state for L =  0
   l= 0   rc=  1.293209   el= -1.742414   Ekb=  9.076872   kbcos=  0.325320
GHOST: No ghost state for L =  1
   l= 1   rc=  1.284119   el= -0.676589   Ekb= -8.194485   kbcos= -0.396010
GHOST: No ghost state for L =  2
   l= 2   rc=  1.433152   el=  0.013307   Ekb= -2.071665   kbcos= -0.003690
GHOST: No ghost state for L =  3
   l= 3   rc=  1.540891   el=  0.019584   Ekb= -0.817137   kbcos= -0.000371

KBgen: Total number of Kleinman-Bylander projectors:  16
atom: -------------------------------------------------------------------------

atom: SANKEY-TYPE ORBITALS:
atom: Selected multiple-zeta basis: split     

SPLIT: Orbitals with angular momentum L= 0

SPLIT: Basis orbitals for state 2s

SPLIT: PAO cut-off radius determined from an
SPLIT: energy shift=  0.010000 Ry
Split based on tail norm

   izeta = 1
                 lambda =    1.000000
                     rc =    3.560943
                 energy =   -1.731321
                kinetic =    1.587329
    potential(screened) =   -3.318651
       potential(ionic) =  -11.260325

   izeta = 2
                 rmatch =    2.319910
              splitnorm =    0.150000
                 energy =   -1.319217
                kinetic =    2.736746
    potential(screened) =   -4.055963
       potential(ionic) =  -12.745464

SPLIT: Orbitals with angular momentum L= 1

SPLIT: Basis orbitals for state 2p

SPLIT: PAO cut-off radius determined from an
SPLIT: energy shift=  0.010000 Ry
Split based on tail norm

   izeta = 1
                 lambda =    1.000000
                     rc =    4.290924
                 energy =   -0.665565
                kinetic =    4.934810
    potential(screened) =   -5.600376
       potential(ionic) =  -13.346429

   izeta = 2
                 rmatch =    2.782200
              splitnorm =    0.150000
                 energy =   -0.468052
                kinetic =    6.936835
    potential(screened) =   -7.404886
       potential(ionic) =  -15.957492

POLgen: Perturbative polarization orbital with L=  2

POLgen: Polarization orbital for state 2p
Split based on tail norm

   izeta = 1
                     rc =    4.290924
                 energy =    2.236783
                kinetic =    4.278617
    potential(screened) =   -2.041834
       potential(ionic) =   -8.171412
atom: Total number of Sankey-type orbitals: 13

atm_pop: Valence configuration (for local Pseudopot. screening):
 2s( 2.00)                                                            
 2p( 4.00)                                                            
 3d( 0.00)                                                            
Vna: chval, zval:    6.00000   6.00000

Vna:  Cut-off radius for the neutral-atom potential:   4.290924

atom: _________________________________________________________________________

prinput: Basis input 

PAO.BasisType split     

%block ChemicalSpeciesLabel
    1    1 H                       # Species index, atomic number, species label
    2    8 O                       # Species index, atomic number, species label
%endblock ChemicalSpeciesLabel

%block PAO.Basis                 # Define Basis set
# WARNING: This information might be incomplete!
H                     1                    # Species label, number of l-shells
 n=1   0   2 P   1                   # n, l, Nzeta, Polarization, NzetaPol
   5.285      3.582   
   1.000      1.000   
O                     2                    # Species label, number of l-shells
 n=2   0   2                         # n, l, Nzeta 
   3.561      2.320   
   1.000      1.000   
 n=2   1   2 P   1                   # n, l, Nzeta, Polarization, NzetaPol
   4.291      2.782   
   1.000      1.000   
%endblock PAO.Basis

prinput: ----------------------------------------------------------------------

Dumping basis to NetCDF file H.ion.nc
Dumping basis to NetCDF file O.ion.nc
coor:   Atomic-coordinates input format  =     Cartesian coordinates
coor:                                          (in Angstroms)

siesta: Atomic coordinates (Bohr) and species
siesta:      0.00000   0.00000   0.00000  2        1
siesta:      1.43052   1.10738   0.00000  1        2
siesta:     36.36400   1.10738   0.00000  1        3

siesta: System type = chain     

initatomlists: Number of atoms, orbitals, and projectors:      3    23    34

siesta: ******************** Simulation parameters ****************************
siesta:
siesta: The following are some of the parameters of the simulation.
siesta: A complete list of the parameters used, including default values,
siesta: can be found in file out.fdf
siesta:
redata: Spin configuration                          = none
redata: Number of spin components                   = 1
redata: Time-Reversal Symmetry                      = T
redata: Spin spiral                                 = F
redata: Long output                                 =   F
redata: Number of Atomic Species                    =        2
redata: Charge density info will appear in .RHO file
redata: Write Mulliken charges (when)               = none
redata: Write Mulliken Pop.                         = NO
redata: Write Hirshfeld charges (when)              = none
redata: Write Voronoi charges (when)                = none
redata: Write spin charge (when)                    = none
redata: Matel table size (NRTAB)                    =     1024
redata: Mesh Cutoff                                 =    50.0000 Ry
redata: Net charge of the system                    =     0.0000 |e|
redata: Min. number of SCF Iter                     =        0
redata: Max. number of SCF Iter                     =     1000
redata: SCF convergence failure will abort job
redata: SCF mix quantity                            = Hamiltonian
redata: Mix DM or H after convergence               =   F
redata: Recompute H after scf cycle                 =   F
redata: Mix DM in first SCF step                    =   T
redata: Write Pulay info on disk                    =   F
redata: New DM Occupancy tolerance                  = 0.000000000001
redata: No kicks to SCF
redata: DM Mixing Weight for Kicks                  =     0.5000
redata: Require Harris convergence for SCF          =   F
redata: Harris energy tolerance for SCF             =     0.000100 eV
redata: Require DM convergence for SCF              =   T
redata: DM tolerance for SCF                        =     0.000100
redata: Require EDM convergence for SCF             =   F
redata: EDM tolerance for SCF                       =     0.001000 eV
redata: Require H convergence for SCF               =   T
redata: Hamiltonian tolerance for SCF               =     0.001000 eV
redata: Require (free) Energy convergence for SCF   =   F
redata: (free) Energy tolerance for SCF             =     0.000100 eV
redata: Using DFT-D3 dispersion                     =   F
redata: Using Saved Data (generic)                  =   F
redata: Use continuation files for DM               =   F
redata: Neglect nonoverlap interactions             =   F
redata: Method of Calculation                       = Diagonalization
redata: Electronic Temperature                      =   300.0000 K
redata: Fix the spin of the system                  =   F
redata: Max. number of TDED Iter                    =        1
redata: Number of TDED substeps                     =        3
mix.SCF: Pulay mixing                            = Pulay
mix.SCF:    Variant                              = stable
mix.SCF:    History steps                        = 3
mix.SCF:    Linear mixing weight                 =     0.080000
mix.SCF:    Mixing weight                        =     0.080000
mix.SCF:    SVD condition                        = 0.1000E-07
FFT: Using FFTW.
redata: Save all siesta data in one NC              =   F
redata: ***********************************************************************

%block SCF.Mixers
  Pulay
%endblock SCF.Mixers

%block SCF.Mixer.Pulay
  # Mixing method
  method pulay
  variant stable

  # Mixing options
  weight 0.0800
  weight.linear 0.0800
  history 3
%endblock SCF.Mixer.Pulay

Size of DM history Fstack: 1
Total number of electrons:     8.000000
Total ionic charge:     8.000000

siesta: k-grid: Number of k-points = 1
siesta: k-point is Gamma-only

diag: Algorithm                                     = D&C
diag: Used triangular part                          = Lower
diag: Absolute tolerance                            =  0.100E-15
diag: Orthogonalization factor                      =  0.100E-05
diag: Memory factor                                 =  1.0000


ts: **************************************************************
ts: Save H and S matrices                           =    F
ts: Save TSHS files in MD/FC simulation             =    F
ts: Save DM and EDM matrices                        =    F
ts: Only save the overlap matrix S                  =    F
ts: **************************************************************

************************ Begin: TS CHECKS AND WARNINGS ************************
************************ End: TS CHECKS AND WARNINGS **************************

QM/MM cell and QM coordinates received (Bohr).
Cell (Bohr) =
   37.794522    0.000000    0.000000
    0.000000   37.794522    0.000000
    0.000000    0.000000   37.794522
QM Coordinates (Bohr) =
    0.000000    0.000000    0.000000
    1.430523    1.107380    0.000000
   36.364000    1.107380    0.000000

                     ====================================
                        QMMM coord. step =      0
                     ====================================

outcell: Unit cell vectors (Ang):
       20.000000    0.000000    0.000000
        0.000000   20.000000    0.000000
        0.000000    0.000000   20.000000

outcell: Cell vector modules (Ang)   :   20.000000   20.000000   20.000000
outcell: Cell angles (23,13,12) (deg):     90.0000     90.0000     90.0000
outcell: Cell volume (Ang**3)        :   8000.0000
<dSpData1D:S at geom step 0
  <sparsity:sparsity for geom step 0
    nrows_g=23 nrows=23 sparsity=1.0000 nnzs=529, refcount: 7>
  <dData1D:(new from dSpData1D) n=529, refcount: 1>
refcount: 1>
new_DM -- step:     1
Initializing Density Matrix...
DM filled with atomic data:
<dSpData2D:DM initialized from atoms
  <sparsity:sparsity for geom step 0
    nrows_g=23 nrows=23 sparsity=1.0000 nnzs=529, refcount: 8>
  <dData2D:DM n=529 m=1, refcount: 1>
refcount: 1>
No. of atoms with KB's overlaping orbs in proc 0. Max # of overlaps:       3      23

InitMesh: MESH = 90 x 90 x 90 = 729000
InitMesh: Mesh cutoff (required, used) =    50.000    55.966 Ry
New grid distribution [1]: sub = 2
 Number of Ewald reciprocal points:            5           5           5

stepf: Fermi-Dirac step function

siesta: Program's energy decomposition (eV):
siesta: Ebs     =       -70.845860
siesta: Eions   =       810.513381
siesta: Ena     =       174.158273
siesta: Ekin    =       377.649831
siesta: Enl     =       -70.603984
siesta: Eso     =         0.000000
siesta: Edftu   =         0.000000
siesta: DEna    =       -20.993311
siesta: DUscf   =         2.727791
siesta: DUext   =         0.000000
siesta: Ex      =      -104.588312
siesta: Ec      =       -12.791847
siesta: Exc     =      -117.380160
siesta: EbV     =         0.000000
siesta: eta*DQ  =         0.000000
siesta: Emadel  =         0.000000
siesta: Emeta   =         0.000000
siesta: Emolmec =         0.000000
siesta: Ekinion =         0.000000
siesta: Eharris =      -465.779337
siesta: Etot    =      -464.954941
siesta: FreeEng =      -464.954941

        iscf     Eharris(eV)        E_KS(eV)     FreeEng(eV)     dDmax    Ef(eV) dHmax(eV)
   scf:    1     -465.779337     -464.954941     -464.954941  1.174008  0.398821  8.302309
timer: Routine,Calls,Time,% = IterSCF        1       0.036   6.52
   scf:    2     -465.762857     -465.383010     -465.383010  0.036770  0.847476  6.706416
   scf:    3     -466.284827     -466.178090     -466.178090  0.136907 -3.921506  0.479578
   scf:    4     -465.792790     -466.040350     -466.040350  0.096997 -4.401925  2.607468
   scf:    5     -466.235292     -466.199664     -466.199664  0.046314 -3.686449  0.080627
   scf:    6     -466.199020     -466.198765     -466.198765  0.001704 -3.693861  0.068666
   scf:    7     -466.196796     -466.196708     -466.196708  0.004074 -3.640142  0.028701
   scf:    8     -466.196550     -466.196541     -466.196541  0.000206 -3.642332  0.024510
   scf:    9     -466.196134     -466.196104     -466.196104  0.001117 -3.651103  0.014384
   scf:   10     -466.196078     -466.196068     -466.196068  0.001720 -3.660199  0.001702
   scf:   11     -466.196063     -466.196063     -466.196063  0.000008 -3.660100  0.001572
   scf:   12     -466.196018     -466.196018     -466.196018  0.000135 -3.658834  0.000205
   scf:   13     -466.196016     -466.196016     -466.196016  0.000004 -3.658825  0.000162

SCF Convergence by DM+H criterion
max |DM_out - DM_in|         :     0.0000040682
max |H_out - H_in|      (eV) :     0.0001623197
SCF cycle converged after 13 iterations

Using DM_out to compute the final energy and forces
No. of atoms with KB's overlaping orbs in proc 0. Max # of overlaps:       3      23

siesta: E_KS(eV) =             -466.3898

siesta: E_KS - E_eggbox =      -466.3898

siesta: Atomic forces (eV/Ang):
     1    0.000000   -1.562379    0.000000
     2    0.569224    0.915683   -0.000000
     3   -0.569224    0.915683   -0.000000
----------------------------------------
   Tot    0.000000    0.268987    0.000000
----------------------------------------
   Max    1.562379
   Res    0.727706    sqrt( Sum f_i^2 / 3N )
----------------------------------------
   Max    1.562379    constrained

Stress tensor Voigt[x,y,z,yz,xz,xy] (kbar):       -0.52       -0.05        0.38       -0.00        0.00        0.01
(Free)E + p*V (eV/cell)     -466.0708
Target enthalpy (eV/cell)     -466.3898

siesta: Program's energy decomposition (eV):
siesta: Ebs     =       -97.089605
siesta: Eions   =       810.513381
siesta: Ena     =       174.158273
siesta: Ekin    =       349.959149
siesta: Enl     =       -63.454763
siesta: Eso     =         0.000000
siesta: Edftu   =         0.000000
siesta: DEna    =        -4.486549
siesta: DUscf   =         0.887874
siesta: DUext   =        -0.193737
siesta: Ex      =      -100.165036
siesta: Ec      =       -12.581582
siesta: Exc     =      -112.746619
siesta: EbV     =         0.000000
siesta: eta*DQ  =         0.000000
siesta: Emadel  =         0.000000
siesta: Emeta   =         0.000000
siesta: Emolmec =         0.000000
siesta: Ekinion =         0.000000
siesta: Eharris =      -466.196016
siesta: Etot    =      -466.389753
siesta: FreeEng =      -466.389753

siesta: Final energy (eV):
siesta:  Band Struct. =     -97.089605
siesta:       Kinetic =     349.959149
siesta:       Hartree =     527.375992
siesta:         Edftu =       0.000000
siesta:       Eso     =       0.000000
siesta:    Ext. field =      -0.193737
siesta:         Exch. =    -100.165036
siesta:         Corr. =     -12.581582
siesta:     Bulk bias =       0.000000
siesta:   Exch.-corr. =    -112.746619
siesta:  Ion-electron =   -1353.882576
siesta:       Ion-ion =     123.098037
siesta:       Ekinion =       0.000000
siesta: D3 dispersion =       0.000000
siesta:         Total =    -466.389753
siesta:         Fermi =      -3.658825

siesta: Atomic forces (eV/Ang):
siesta:      1    0.000000   -1.562379    0.000000
siesta:      2    0.569224    0.915683   -0.000000
siesta:      3   -0.569224    0.915683   -0.000000
siesta: ----------------------------------------
siesta:    Tot    0.000000    0.268987    0.000000

siesta: Stress tensor (static) (eV/Ang**3):
siesta:    -0.000320    0.000000    0.000000
siesta:     0.000000   -0.000025   -0.000000
siesta:     0.000000    0.000000    0.000245

siesta: Cell volume =       8000.000000 Ang**3

siesta: Pressure (static):
siesta:                Solid            Molecule  Units
siesta:           0.00000036          0.00000470  Ry/Bohr**3
siesta:           0.00003341          0.00043151  eV/Ang**3
siesta:           0.05352085          0.69135945  kBar

Basis Enthalpy Calculation:
    Basis Pressure for species 1(H) :      0.2000000 GPa
    Basis Pressure for species 2(O) :      0.2000000 GPa

    Orbital volume contribution        =           0.712637 eV
    (Free)E + p_basis*V_orbitals       =        -465.677116 eV
    (Free)Eharris+ p_basis*V_orbitals  =        -465.483380 eV
WARNING: BASIS_ENTHALPY and BASIS_HARRIS_ENTHALPY files are deprecated. They will be removed in future releases.
Please use system_label.BASIS_ENTHALPY in your scripts instead.

siesta: Electric dipole (a.u.)  =    0.000000    0.672337   -0.000000
siesta: Electric dipole (Debye) =    0.000000    1.708910   -0.000000

cite: Please indicate the Siesta version in published work: 5.4.0-42-g45ae6a53d
cite: This calculation has made use of features in the following articles
cite: which we encourage you to cite in published work.
cite: (Please see "WaterDimer.siesta.bib" for a BibTeX file.)
        Primary SIESTA paper
          DOI: www.doi.org/10.1088/0953-8984/14/11/302


 QMMM - closing pipes.

timer: Elapsed wall time (sec) =       1.157
timer: CPU execution times (sec):

Routine            Calls   Time/call    Tot.time        %
siesta                 1       1.110       1.110   100.00
Setup                  1       0.077       0.077     6.94
bands                  1       0.000       0.000     0.00
KSV_init               1       0.000       0.000     0.00
IterGeom               1       1.029       1.029    92.72
geom_init              1       0.433       0.433    39.00
state_init             1       0.332       0.332    29.93
hsparse                1       0.000       0.000     0.00
overlap                1       0.000       0.000     0.01
Setup_H0               1       0.065       0.065     5.90
naefs                  2       0.000       0.000     0.00
dnaefs                 1       0.000       0.000     0.00
two-body               1       0.000       0.000     0.00
MolMec                 2       0.000       0.000     0.00
kinefsm                2       0.000       0.000     0.02
nlefsm                 2       0.000       0.001     0.06
DHSCF_Init             1       0.065       0.065     5.86
DHSCF1                 1       0.003       0.003     0.23
InitMesh               1       0.003       0.003     0.23
INITMESH               1       0.000       0.000     0.00
DHSCF2                 1       0.062       0.062     5.62
REMESH                 1       0.000       0.000     0.04
REORD                 39       0.001       0.022     1.98
PHION                  1       0.004       0.004     0.35
COMM_BSC              63       0.000       0.028     2.53
QMMM Potential         1       0.028       0.028     2.55
POISON                16       0.019       0.301    27.07
fft                   32       0.006       0.193    17.43
setup_H               14       0.036       0.501    45.16
DHSCF                 15       0.041       0.619    55.72
DHSCF3                15       0.035       0.530    47.73
rhoofd                15       0.001       0.018     1.59
XC                    15       0.005       0.075     6.80
GXC-CellXC            15       0.003       0.041     3.70
gridxc@cellXC         15       0.003       0.041     3.69
vmat                  15       0.001       0.011     0.96
IterSCF               13       0.036       0.469    42.23
compute_dm            13       0.000       0.001     0.10
diagon                13       0.000       0.001     0.10
r-eigvec              13       0.000       0.001     0.08
r-buildHS             13       0.000       0.000     0.00
rdiag                 13       0.000       0.001     0.08
rdiag1                13       0.000       0.000     0.01
rdiag2                13       0.000       0.000     0.01
rdiag3                13       0.000       0.001     0.05
rdiag4                13       0.000       0.000     0.01
r-buildD              13       0.000       0.000     0.01
MIXER                 12       0.000       0.000     0.02
PostSCF                1       0.127       0.127    11.45
FINAL_HF               1       0.127       0.127    11.45
DHSCF4                 1       0.089       0.089     7.98
QMMM Energy            1       0.002       0.002     0.22
QMMM MM Forces         1       0.075       0.075     6.76
QMMM Vna Forces        1       0.000       0.000     0.00
dfscf                  1       0.006       0.006     0.54
overfsm                1       0.000       0.000     0.01
writeHSX               1       0.000       0.000     0.01
state_analysis         1       0.000       0.000     0.01
siesta_move            1       0.000       0.000     0.00
Analysis               1       0.000       0.000     0.02
optical                1       0.000       0.000     0.00
  

>> End of run:   5-SEP-2025  14:33:06
Job completed
