Executable      : /home/fnpedron/Siesta/siesta-dev/_build_serial/Src/siesta
Version         : 5.4.0-42-g45ae6a53d
Architecture    : x86_64
Compiler version: GNU-13.3.0
Compiler flags  : -fallow-argument-mismatch -O3 -march=native
Environment variables: 
  SIESTA_PS_PATH: /home/fnpedron/Siesta/siesta-dev/Tests/Pseudos
Parallelisations: none
NetCDF support
NetCDF-4 support
Lua support
DFT-D3 support

Runtime information:
* Directory : /home/fnpedron/Siesta/siesta-dev/_build_serial/Util/QMMM-driver/Tests/MM-Fixed/fixedMM
* Running in serial mode.
>> Start of run:   5-SEP-2025  14:33:11

                           *********************** 
                           *  WELCOME TO SIESTA  * 
                           *********************** 

 NOTE: Siesta V5 introduces some new defaults for basis-set generation
 NOTE: which might lead to slightly different numerical results.
 NOTE: Please see the manual for full details and compatibility measures.


reinit: Reading from file ../fixedMM.siestain.fdf

reinit: -----------------------------------------------------------------------
reinit: System Name: fixedMM.siesta
reinit: -----------------------------------------------------------------------
reinit: System Label: fixedMM.siesta
reinit: -----------------------------------------------------------------------

initatom: Reading input for the pseudopotentials and atomic orbitals ----------
Species number:   1 Atomic number:    1 Label: H
Species number:   2 Atomic number:    8 Label: O

Ground state valence configuration (from tables):   1s01  2p00  3d00  4f00
Ground state valence configuration (from tables):   2s02  2p04  3d00  4f00

---- Processing specs for species: H
Reading pseudopotential information in formatted form from:
  /home/fnpedron/Siesta/siesta-dev/Tests/Pseudos/H.psf

---- Processing specs for species: O
Reading pseudopotential information in formatted form from:
  /home/fnpedron/Siesta/siesta-dev/Tests/Pseudos/O.psf

---- Pseudopotential check for H 

Pseudized shells:
1s( 1.00) rc: 1.25
2p( 0.00) rc: 1.25
3d( 0.00) rc: 1.25
4f( 0.00) rc: 1.25
Valence configuration for ps generation: (assumed as above)

---- Pseudopotential check for O 

Pseudized shells:
2s( 2.00) rc: 1.14
2p( 4.00) rc: 1.14
3d( 0.00) rc: 1.14
4f( 0.00) rc: 1.14
Valence configuration for ps generation: (assumed as above)
For H, standard SIESTA heuristics set lmxkb to 1
 (one more than the basis l, including polarization orbitals).
Use PS.lmax or PS.KBprojectors blocks to override.
For O, standard SIESTA heuristics set lmxkb to 2
 (one more than the basis l, including polarization orbitals).
Use PS.lmax or PS.KBprojectors blocks to override.

<basis_specs>
===============================================================================
H                    Z=   1    Mass=  1.0080        Charge= 0.17977+309
Lmxo=0 Lmxkb= 1    BasisType=split      Semic=F
L=0  Nsemic=0  Cnfigmx=1
          i=1  nzeta=1  polorb=0  (1s)
            splnorm:   0.15000    
               vcte:    40.000    
               rinn:  -0.90000    
               qcoe:    0.0000    
               qyuk:    0.0000    
               qwid:   0.10000E-01
                rcs:    0.0000    
            lambdas:    1.0000    
-------------------------------------------------------------------------------
L=0  Nkbl=1  erefs: 0.17977+309
L=1  Nkbl=1  erefs: 0.17977+309
===============================================================================
</basis_specs>

Using PAO.SplitTailNorm
atom: Called for H                     (Z =   1)
Maximum radius (at nrval) set to   50.00000 8518

read_vps: Pseudopotential generation method:
read_vps: ATM3      Troullier-Martins                       
Valence charge in pseudo generation:    1.00000

xc_check: Exchange-correlation functional:
xc_check: Ceperley-Alder
V l=0 = -2*Zval/r beyond r=  1.2384
V l=1 = -2*Zval/r beyond r=  1.2321
All V_l potentials equal beyond r=  1.2371
This should be close to max(r_c) in ps generation
All pots = -2*Zval/r beyond r=  1.2384
Using small-core scheme (local charge) for Vlocal

VLOCAL_FROM_CHLOCAL: 99.0% of the norm of Vloc inside     28.363 Ry
VLOCAL_FROM_CHLOCAL: 99.9% of the norm of Vloc inside     64.639 Ry
atom: Maximum radius for chlocal:    1.44620
atom: Maximum radius for r*vlocal+2*Zval:    1.31026

KBgen: Kleinman-Bylander projectors: 
GHOST: No ghost state for L =  0
   l= 0   rc=  1.364142   el= -0.467325   Ekb= -2.009475   kbcos= -0.336680
GHOST: No ghost state for L =  1
   l= 1   rc=  1.430269   el=  0.007562   Ekb= -0.503817   kbcos= -0.022554

KBgen: Total number of Kleinman-Bylander projectors:   4
atom: -------------------------------------------------------------------------

atom: SANKEY-TYPE ORBITALS:

SPLIT: Orbitals with angular momentum L= 0

SPLIT: Basis orbitals for state 1s

SPLIT: PAO cut-off radius determined from an
SPLIT: energy shift=  0.010000 Ry
Split based on tail norm

   izeta = 1
                 lambda =    1.000000
                     rc =    5.285354
                 energy =   -0.456120
                kinetic =    0.900445
    potential(screened) =   -1.356565
       potential(ionic) =   -1.890080
atom: Total number of Sankey-type orbitals:  1

atm_pop: Valence configuration (for local Pseudopot. screening):
 1s( 1.00)                                                            
Vna: chval, zval:    1.00000   1.00000

Vna:  Cut-off radius for the neutral-atom potential:   5.285354

atom: _________________________________________________________________________

<basis_specs>
===============================================================================
O                    Z=   8    Mass=  15.999        Charge= 0.17977+309
Lmxo=1 Lmxkb= 2    BasisType=split      Semic=F
L=0  Nsemic=0  Cnfigmx=2
          i=1  nzeta=1  polorb=0  (2s)
            splnorm:   0.15000    
               vcte:    40.000    
               rinn:  -0.90000    
               qcoe:    0.0000    
               qyuk:    0.0000    
               qwid:   0.10000E-01
                rcs:    0.0000    
            lambdas:    1.0000    
L=1  Nsemic=0  Cnfigmx=2
          i=1  nzeta=1  polorb=0  (2p)
            splnorm:   0.15000    
               vcte:    40.000    
               rinn:  -0.90000    
               qcoe:    0.0000    
               qyuk:    0.0000    
               qwid:   0.10000E-01
                rcs:    0.0000    
            lambdas:    1.0000    
-------------------------------------------------------------------------------
L=0  Nkbl=1  erefs: 0.17977+309
L=1  Nkbl=1  erefs: 0.17977+309
L=2  Nkbl=1  erefs: 0.17977+309
===============================================================================
</basis_specs>

Using PAO.SplitTailNorm
atom: Called for O                     (Z =   8)
Maximum radius (at nrval) set to   50.00000 8518

read_vps: Pseudopotential generation method:
read_vps: ATM3      Troullier-Martins                       
Valence charge in pseudo generation:    6.00000

xc_check: Exchange-correlation functional:
xc_check: Ceperley-Alder
V l=0 = -2*Zval/r beyond r=  1.1366
V l=1 = -2*Zval/r beyond r=  1.1332
V l=2 = -2*Zval/r beyond r=  1.1298
All V_l potentials equal beyond r=  1.1355
This should be close to max(r_c) in ps generation
All pots = -2*Zval/r beyond r=  1.1366
Using small-core scheme (local charge) for Vlocal

VLOCAL_FROM_CHLOCAL: 99.0% of the norm of Vloc inside     33.667 Ry
VLOCAL_FROM_CHLOCAL: 99.9% of the norm of Vloc inside     76.727 Ry
atom: Maximum radius for chlocal:    1.37241
atom: Maximum radius for r*vlocal+2*Zval:    1.25469

KBgen: Kleinman-Bylander projectors: 
GHOST: No ghost state for L =  0
   l= 0   rc=  1.293209   el= -1.742414   Ekb=  9.076872   kbcos=  0.325320
GHOST: No ghost state for L =  1
   l= 1   rc=  1.284119   el= -0.676589   Ekb= -8.194485   kbcos= -0.396010
GHOST: No ghost state for L =  2
   l= 2   rc=  1.433152   el=  0.013307   Ekb= -2.071665   kbcos= -0.003690

KBgen: Total number of Kleinman-Bylander projectors:   9
atom: -------------------------------------------------------------------------

atom: SANKEY-TYPE ORBITALS:

SPLIT: Orbitals with angular momentum L= 0

SPLIT: Basis orbitals for state 2s

SPLIT: PAO cut-off radius determined from an
SPLIT: energy shift=  0.010000 Ry
Split based on tail norm

   izeta = 1
                 lambda =    1.000000
                     rc =    3.560943
                 energy =   -1.731321
                kinetic =    1.587329
    potential(screened) =   -3.318651
       potential(ionic) =  -11.260325

SPLIT: Orbitals with angular momentum L= 1

SPLIT: Basis orbitals for state 2p

SPLIT: PAO cut-off radius determined from an
SPLIT: energy shift=  0.010000 Ry
Split based on tail norm

   izeta = 1
                 lambda =    1.000000
                     rc =    4.290924
                 energy =   -0.665565
                kinetic =    4.934810
    potential(screened) =   -5.600376
       potential(ionic) =  -13.346429
atom: Total number of Sankey-type orbitals:  4

atm_pop: Valence configuration (for local Pseudopot. screening):
 2s( 2.00)                                                            
 2p( 4.00)                                                            
Vna: chval, zval:    6.00000   6.00000

Vna:  Cut-off radius for the neutral-atom potential:   4.290924

atom: _________________________________________________________________________

prinput: Basis input 

PAO.BasisType split     

%block ChemicalSpeciesLabel
    1    1 H                       # Species index, atomic number, species label
    2    8 O                       # Species index, atomic number, species label
%endblock ChemicalSpeciesLabel

%block PAO.Basis                 # Define Basis set
# WARNING: This information might be incomplete!
H                     1                    # Species label, number of l-shells
 n=1   0   1                         # n, l, Nzeta 
   5.285   
   1.000   
O                     2                    # Species label, number of l-shells
 n=2   0   1                         # n, l, Nzeta 
   3.561   
   1.000   
 n=2   1   1                         # n, l, Nzeta 
   4.291   
   1.000   
%endblock PAO.Basis

prinput: ----------------------------------------------------------------------

Dumping basis to NetCDF file H.ion.nc
Dumping basis to NetCDF file O.ion.nc
coor:   Atomic-coordinates input format  =     Cartesian coordinates
coor:                                          (in Angstroms)

siesta: Atomic coordinates (Bohr) and species
siesta:     20.04999  16.30834  17.38737  2        1
siesta:     19.27710  14.91183  18.38892  1        2
siesta:     21.26131  17.27399  18.48341  1        3

siesta: System type = molecule  

initatomlists: Number of atoms, orbitals, and projectors:      3     6    17

siesta: ******************** Simulation parameters ****************************
siesta:
siesta: The following are some of the parameters of the simulation.
siesta: A complete list of the parameters used, including default values,
siesta: can be found in file out.fdf
siesta:
redata: Spin configuration                          = none
redata: Number of spin components                   = 1
redata: Time-Reversal Symmetry                      = T
redata: Spin spiral                                 = F
redata: Long output                                 =   F
redata: Number of Atomic Species                    =        2
redata: Charge density info will appear in .RHO file
redata: Write Mulliken charges (when)               = none
redata: Write Mulliken Pop.                         = NO
redata: Write Hirshfeld charges (when)              = none
redata: Write Voronoi charges (when)                = none
redata: Write spin charge (when)                    = none
redata: Matel table size (NRTAB)                    =     1024
redata: Mesh Cutoff                                 =     5.0000 Ry
redata: Net charge of the system                    =     0.0000 |e|
redata: Min. number of SCF Iter                     =        0
redata: Max. number of SCF Iter                     =      100
redata: SCF convergence failure will abort job
redata: SCF mix quantity                            = Hamiltonian
redata: Mix DM or H after convergence               =   F
redata: Recompute H after scf cycle                 =   F
redata: Mix DM in first SCF step                    =   T
redata: Write Pulay info on disk                    =   F
redata: New DM Occupancy tolerance                  = 0.000000000001
redata: No kicks to SCF
redata: DM Mixing Weight for Kicks                  =     0.5000
redata: Require Harris convergence for SCF          =   F
redata: Harris energy tolerance for SCF             =     0.000100 eV
redata: Require DM convergence for SCF              =   T
redata: DM tolerance for SCF                        =     0.000100
redata: Require EDM convergence for SCF             =   F
redata: EDM tolerance for SCF                       =     0.001000 eV
redata: Require H convergence for SCF               =   T
redata: Hamiltonian tolerance for SCF               =     0.001000 eV
redata: Require (free) Energy convergence for SCF   =   F
redata: (free) Energy tolerance for SCF             =     0.000100 eV
redata: Using DFT-D3 dispersion                     =   F
redata: Using Saved Data (generic)                  =   F
redata: Use continuation files for DM               =   F
redata: Neglect nonoverlap interactions             =   F
redata: Method of Calculation                       = Diagonalization
redata: Electronic Temperature                      =   300.0000 K
redata: Fix the spin of the system                  =   F
redata: Max. number of TDED Iter                    =        1
redata: Number of TDED substeps                     =        3
mix.SCF: Pulay mixing                            = Pulay
mix.SCF:    Variant                              = stable
mix.SCF:    History steps                        = 3
mix.SCF:    Linear mixing weight                 =     0.080000
mix.SCF:    Mixing weight                        =     0.080000
mix.SCF:    SVD condition                        = 0.1000E-07
FFT: Using FFTW.
redata: Save all siesta data in one NC              =   F
redata: ***********************************************************************

%block SCF.Mixers
  Pulay
%endblock SCF.Mixers

%block SCF.Mixer.Pulay
  # Mixing method
  method pulay
  variant stable

  # Mixing options
  weight 0.0800
  weight.linear 0.0800
  history 3
%endblock SCF.Mixer.Pulay

Size of DM history Fstack: 1
Total number of electrons:     8.000000
Total ionic charge:     8.000000

siesta: k-grid: Number of k-points = 1
siesta: k-point is Gamma-only

diag: Algorithm                                     = D&C
diag: Used triangular part                          = Lower
diag: Absolute tolerance                            =  0.100E-15
diag: Orthogonalization factor                      =  0.100E-05
diag: Memory factor                                 =  1.0000


ts: **************************************************************
ts: Save H and S matrices                           =    F
ts: Save TSHS files in MD/FC simulation             =    F
ts: Save DM and EDM matrices                        =    F
ts: Only save the overlap matrix S                  =    F
ts: **************************************************************

************************ Begin: TS CHECKS AND WARNINGS ************************
************************ End: TS CHECKS AND WARNINGS **************************

QM/MM cell and QM coordinates received (Bohr).
Cell (Bohr) =
   35.188590    0.000000    0.000000
    0.000000   35.188590    0.000000
    0.000000    0.000000   35.188590
QM Coordinates (Bohr) =
   20.049994   16.308336   17.387370
   19.277096   14.911829   18.388925
   21.261309   17.273987   18.483411

                     ====================================
                        QMMM coord. step =      0
                     ====================================

outcell: Unit cell vectors (Ang):
       18.621000    0.000000    0.000000
        0.000000   18.621000    0.000000
        0.000000    0.000000   18.621000

outcell: Cell vector modules (Ang)   :   18.621000   18.621000   18.621000
outcell: Cell angles (23,13,12) (deg):     90.0000     90.0000     90.0000
outcell: Cell volume (Ang**3)        :   6456.6761
<dSpData1D:S at geom step 0
  <sparsity:sparsity for geom step 0
    nrows_g=6 nrows=6 sparsity=1.0000 nnzs=36, refcount: 7>
  <dData1D:(new from dSpData1D) n=36, refcount: 1>
refcount: 1>
new_DM -- step:     1
Initializing Density Matrix...
DM filled with atomic data:
<dSpData2D:DM initialized from atoms
  <sparsity:sparsity for geom step 0
    nrows_g=6 nrows=6 sparsity=1.0000 nnzs=36, refcount: 8>
  <dData2D:DM n=36 m=1, refcount: 1>
refcount: 1>
No. of atoms with KB's overlaping orbs in proc 0. Max # of overlaps:       3       6

InitMesh: MESH = 30 x 30 x 30 = 27000
InitMesh: Mesh cutoff (required, used) =     5.000     7.174 Ry
New grid distribution [1]: sub = 2
 Number of Ewald reciprocal points:            0           0           0

stepf: Fermi-Dirac step function

siesta: Program's energy decomposition (eV):
siesta: Ebs     =      -129.745283
siesta: Eions   =       810.513381
siesta: Ena     =       173.865259
siesta: Ekin    =       267.657895
siesta: Enl     =       -31.423411
siesta: Eso     =         0.000000
siesta: Edftu   =         0.000000
siesta: DEna    =       -83.968866
siesta: DUscf   =        11.191529
siesta: DUext   =         0.000000
siesta: Ex      =       -97.190596
siesta: Ec      =       -12.618281
siesta: Exc     =      -109.808877
siesta: EbV     =         0.000000
siesta: eta*DQ  =         0.000000
siesta: Emadel  =         0.000000
siesta: Emeta   =         0.000000
siesta: Emolmec =         0.000000
siesta: Ekinion =         0.000000
siesta: Eharris =      -707.189605
siesta: Etot    =      -582.999851
siesta: FreeEng =      -582.999851

        iscf     Eharris(eV)        E_KS(eV)     FreeEng(eV)     dDmax    Ef(eV) dHmax(eV)
   scf:    1     -707.189605     -582.999851     -582.999851  1.464342 30.082897 12.142155
timer: Routine,Calls,Time,% = IterSCF        1       0.001   1.07
   scf:    2     -583.029917     -583.012468     -583.012468  0.005337 30.616955 11.172243
   scf:    3     -583.123714     -583.044091     -583.044091  0.067246 36.803164  0.111896
   scf:    4     -583.039684     -583.041558     -583.041558  0.004614 36.830654  0.173453
   scf:    5     -583.049640     -583.046704     -583.046704  0.014235 36.806688  0.010122
   scf:    6     -583.046761     -583.046761     -583.046761  0.000038 36.806506  0.008696
   scf:    7     -583.047210     -583.047210     -583.047210  0.000224 36.805644  0.002167
   scf:    8     -583.047221     -583.047221     -583.047221  0.000005 36.805727  0.001909
   scf:    9     -583.047264     -583.047264     -583.047264  0.000029 36.806615  0.000472

SCF Convergence by DM+H criterion
max |DM_out - DM_in|         :     0.0000285035
max |H_out - H_in|      (eV) :     0.0004717930
SCF cycle converged after 9 iterations

Using DM_out to compute the final energy and forces
No. of atoms with KB's overlaping orbs in proc 0. Max # of overlaps:       3       6

siesta: E_KS(eV) =             -589.5280

siesta: E_KS - E_eggbox =      -589.5280

siesta: Atomic forces (eV/Ang):
----------------------------------------
   Tot   89.746654 -142.042268 -909.016868
----------------------------------------
   Max  970.102634
   Res  333.378986    sqrt( Sum f_i^2 / 3N )
----------------------------------------
   Max  970.102634    constrained

Stress tensor Voigt[x,y,z,yz,xz,xy] (kbar):      -39.43      -42.05      -42.87       -9.24       10.80        1.07
(Free)E + p*V (eV/cell)     -422.4878
Target enthalpy (eV/cell)     -589.5280
QM/MM cell and QM coordinates received (Bohr).
Cell (Bohr) =
   35.188590    0.000000    0.000000
    0.000000   35.188590    0.000000
    0.000000    0.000000   35.188590
QM Coordinates (Bohr) =
   20.074530   16.274884   17.251285
   19.234342   14.968218   18.458500
   21.181481   17.313797   18.541469

                     ====================================
                        QMMM coord. step =      1
                     ====================================

outcell: Unit cell vectors (Ang):
       18.621000    0.000000    0.000000
        0.000000   18.621000    0.000000
        0.000000    0.000000   18.621000

outcell: Cell vector modules (Ang)   :   18.621000   18.621000   18.621000
outcell: Cell angles (23,13,12) (deg):     90.0000     90.0000     90.0000
outcell: Cell volume (Ang**3)        :   6456.6761
<dSpData1D:S at geom step 1
  <sparsity:sparsity for geom step 1
    nrows_g=6 nrows=6 sparsity=1.0000 nnzs=36, refcount: 7>
  <dData1D:(new from dSpData1D) n=36, refcount: 1>
refcount: 1>
new_DM -- step:     2
Re-using DM from previous geometries...
Number of DMs in history: 1
 DM extrapolation coefficients: 
1   1.00000
New DM after history re-use:
<dSpData2D:SpM extrapolated using coords
  <sparsity:sparsity for geom step 1
    nrows_g=6 nrows=6 sparsity=1.0000 nnzs=36, refcount: 9>
  <dData2D:(temp array for extrapolation) n=36 m=1, refcount: 1>
refcount: 1>
No. of atoms with KB's overlaping orbs in proc 0. Max # of overlaps:       3       6

InitMesh: MESH = 30 x 30 x 30 = 27000
InitMesh: Mesh cutoff (required, used) =     5.000     7.174 Ry
New grid distribution [1]: sub = 2
 Number of Ewald reciprocal points:            0           0           0

        iscf     Eharris(eV)        E_KS(eV)     FreeEng(eV)     dDmax    Ef(eV) dHmax(eV)
   scf:    1     -644.152029     -636.285815     -636.285815  0.245144 32.791945  3.459293
   scf:    2     -636.316144     -636.308224     -636.308224  0.026012 33.958402  0.137010
   scf:    3     -636.307819     -636.307760     -636.307760  0.001004 33.921651  0.035746
   scf:    4     -636.307122     -636.307094     -636.307094  0.001335 33.932115  0.003231
   scf:    5     -636.307067     -636.307067     -636.307067  0.000051 33.931450  0.000332

SCF Convergence by DM+H criterion
max |DM_out - DM_in|         :     0.0000514131
max |H_out - H_in|      (eV) :     0.0003317714
SCF cycle converged after 5 iterations

Using DM_out to compute the final energy and forces
No. of atoms with KB's overlaping orbs in proc 0. Max # of overlaps:       3       6

siesta: E_KS(eV) =             -634.9609

siesta: Atomic forces (eV/Ang):
----------------------------------------
   Tot -266.802227  273.399188 -239.861840
----------------------------------------
   Max  281.960903
   Res  142.044570    sqrt( Sum f_i^2 / 3N )
----------------------------------------
   Max  281.960903    constrained

Stress tensor Voigt[x,y,z,yz,xz,xy] (kbar):      -40.55      -41.11      -28.57        1.34        1.48       -2.81
(Free)E + p*V (eV/cell)     -486.8786
Target enthalpy (eV/cell)     -634.9609
QM/MM cell and QM coordinates received (Bohr).
Cell (Bohr) =
   35.188590    0.000000    0.000000
    0.000000   35.188590    0.000000
    0.000000    0.000000   35.188590
QM Coordinates (Bohr) =
   20.037897   16.306683   17.034786
   19.140393   15.177906   18.632097
   20.916847   17.404864   18.685880

                     ====================================
                        QMMM coord. step =      2
                     ====================================

outcell: Unit cell vectors (Ang):
       18.621000    0.000000    0.000000
        0.000000   18.621000    0.000000
        0.000000    0.000000   18.621000

outcell: Cell vector modules (Ang)   :   18.621000   18.621000   18.621000
outcell: Cell angles (23,13,12) (deg):     90.0000     90.0000     90.0000
outcell: Cell volume (Ang**3)        :   6456.6761
<dSpData1D:S at geom step 2
  <sparsity:sparsity for geom step 2
    nrows_g=6 nrows=6 sparsity=1.0000 nnzs=36, refcount: 7>
  <dData1D:(new from dSpData1D) n=36, refcount: 1>
refcount: 1>
new_DM -- step:     3
Re-using DM from previous geometries...
Number of DMs in history: 1
 DM extrapolation coefficients: 
1   1.00000
New DM after history re-use:
<dSpData2D:SpM extrapolated using coords
  <sparsity:sparsity for geom step 2
    nrows_g=6 nrows=6 sparsity=1.0000 nnzs=36, refcount: 9>
  <dData2D:(temp array for extrapolation) n=36 m=1, refcount: 1>
refcount: 1>
No. of atoms with KB's overlaping orbs in proc 0. Max # of overlaps:       3       6

InitMesh: MESH = 30 x 30 x 30 = 27000
InitMesh: Mesh cutoff (required, used) =     5.000     7.174 Ry
New grid distribution [1]: sub = 2
 Number of Ewald reciprocal points:            0           0           0

        iscf     Eharris(eV)        E_KS(eV)     FreeEng(eV)     dDmax    Ef(eV) dHmax(eV)
   scf:    1     -659.282835     -644.268187     -644.268187  0.316177 17.855469  9.092811
   scf:    2     -644.276231     -644.274215     -644.274215  0.007061 21.628775  0.044406
   scf:    3     -644.274188     -644.274186     -644.274186  0.000051 21.614518  0.015861
   scf:    4     -644.274034     -644.274031     -644.274031  0.000250 21.615035  0.000156
   scf:    5     -644.274030     -644.274030     -644.274030  0.000001 21.614992  0.000069

SCF Convergence by DM+H criterion
max |DM_out - DM_in|         :     0.0000005933
max |H_out - H_in|      (eV) :     0.0000687680
SCF cycle converged after 5 iterations

Using DM_out to compute the final energy and forces
No. of atoms with KB's overlaping orbs in proc 0. Max # of overlaps:       3       6

siesta: E_KS(eV) =             -641.9283

siesta: Atomic forces (eV/Ang):
----------------------------------------
   Tot -303.108625  380.556639  271.205798
----------------------------------------
   Max  359.591662
   Res  178.396898    sqrt( Sum f_i^2 / 3N )
----------------------------------------
   Max  359.591662    constrained

Stress tensor Voigt[x,y,z,yz,xz,xy] (kbar):      -38.60      -39.63       38.75        4.05       -3.33       -4.34
(Free)E + p*V (eV/cell)     -588.9007
Target enthalpy (eV/cell)     -641.9283
QM/MM cell and QM coordinates received (Bohr).
Cell (Bohr) =
   35.188590    0.000000    0.000000
    0.000000   35.188590    0.000000
    0.000000    0.000000   35.188590
QM Coordinates (Bohr) =
   19.915603   16.441126   16.891611
   18.974998   15.437429   18.848396
   20.712052   17.540900   18.851903

                     ====================================
                        QMMM coord. step =      3
                     ====================================

outcell: Unit cell vectors (Ang):
       18.621000    0.000000    0.000000
        0.000000   18.621000    0.000000
        0.000000    0.000000   18.621000

outcell: Cell vector modules (Ang)   :   18.621000   18.621000   18.621000
outcell: Cell angles (23,13,12) (deg):     90.0000     90.0000     90.0000
outcell: Cell volume (Ang**3)        :   6456.6761
<dSpData1D:S at geom step 3
  <sparsity:sparsity for geom step 3
    nrows_g=6 nrows=6 sparsity=1.0000 nnzs=36, refcount: 7>
  <dData1D:(new from dSpData1D) n=36, refcount: 1>
refcount: 1>
new_DM -- step:     4
Re-using DM from previous geometries...
Number of DMs in history: 1
 DM extrapolation coefficients: 
1   1.00000
New DM after history re-use:
<dSpData2D:SpM extrapolated using coords
  <sparsity:sparsity for geom step 3
    nrows_g=6 nrows=6 sparsity=1.0000 nnzs=36, refcount: 9>
  <dData2D:(temp array for extrapolation) n=36 m=1, refcount: 1>
refcount: 1>
Note: For starting DM, Qtot, Tr[D*S] =          8.00000000          8.12823981
No. of atoms with KB's overlaping orbs in proc 0. Max # of overlaps:       3       6

InitMesh: MESH = 30 x 30 x 30 = 27000
InitMesh: Mesh cutoff (required, used) =     5.000     7.174 Ry
New grid distribution [1]: sub = 2
 Number of Ewald reciprocal points:            0           0           0

        iscf     Eharris(eV)        E_KS(eV)     FreeEng(eV)     dDmax    Ef(eV) dHmax(eV)
   scf:    1     -665.696762     -646.719226     -646.719226  0.670765 31.080012  7.499224
   scf:    2     -646.831497     -646.780328     -646.780328  0.042416 33.124534  0.071308
   scf:    3     -646.780542     -646.780412     -646.780412  0.000588 33.109841  0.057689
   scf:    4     -646.780813     -646.780566     -646.780566  0.002575 33.121645  0.003081
   scf:    5     -646.780564     -646.780564     -646.780564  0.000013 33.120837  0.000829

SCF Convergence by DM+H criterion
max |DM_out - DM_in|         :     0.0000134305
max |H_out - H_in|      (eV) :     0.0008291226
SCF cycle converged after 5 iterations

Using DM_out to compute the final energy and forces
No. of atoms with KB's overlaping orbs in proc 0. Max # of overlaps:       3       6

siesta: E_KS(eV) =             -643.3423

siesta: Atomic forces (eV/Ang):
----------------------------------------
   Tot   78.302116  -71.612066  232.339119
----------------------------------------
   Max  239.091038
   Res   87.090407    sqrt( Sum f_i^2 / 3N )
----------------------------------------
   Max  239.091038    constrained

Stress tensor Voigt[x,y,z,yz,xz,xy] (kbar):      -41.86      -44.96       24.42       -0.21        0.01       -0.70
(Free)E + p*V (eV/cell)     -559.5214
Target enthalpy (eV/cell)     -643.3423
QM/MM cell and QM coordinates received (Bohr).
Cell (Bohr) =
   35.188590    0.000000    0.000000
    0.000000   35.188590    0.000000
    0.000000    0.000000   35.188590
QM Coordinates (Bohr) =
   19.815707   16.558035   16.816832
   18.721241   15.625716   19.048354
   20.593544   17.704580   19.003735

                     ====================================
                        QMMM coord. step =      4
                     ====================================

outcell: Unit cell vectors (Ang):
       18.621000    0.000000    0.000000
        0.000000   18.621000    0.000000
        0.000000    0.000000   18.621000

outcell: Cell vector modules (Ang)   :   18.621000   18.621000   18.621000
outcell: Cell angles (23,13,12) (deg):     90.0000     90.0000     90.0000
outcell: Cell volume (Ang**3)        :   6456.6761
<dSpData1D:S at geom step 4
  <sparsity:sparsity for geom step 4
    nrows_g=6 nrows=6 sparsity=1.0000 nnzs=36, refcount: 7>
  <dData1D:(new from dSpData1D) n=36, refcount: 1>
refcount: 1>
new_DM -- step:     5
Re-using DM from previous geometries...
Number of DMs in history: 1
 DM extrapolation coefficients: 
1   1.00000
New DM after history re-use:
<dSpData2D:SpM extrapolated using coords
  <sparsity:sparsity for geom step 4
    nrows_g=6 nrows=6 sparsity=1.0000 nnzs=36, refcount: 9>
  <dData2D:(temp array for extrapolation) n=36 m=1, refcount: 1>
refcount: 1>
Note: For starting DM, Qtot, Tr[D*S] =          8.00000000          8.20008598
No. of atoms with KB's overlaping orbs in proc 0. Max # of overlaps:       3       6

InitMesh: MESH = 30 x 30 x 30 = 27000
InitMesh: Mesh cutoff (required, used) =     5.000     7.174 Ry
New grid distribution [1]: sub = 2
 Number of Ewald reciprocal points:            0           0           0

        iscf     Eharris(eV)        E_KS(eV)     FreeEng(eV)     dDmax    Ef(eV) dHmax(eV)
   scf:    1     -641.057866     -609.408910     -609.408910  0.375704 20.292443 11.368778
   scf:    2     -609.586009     -609.517420     -609.517420  0.054980 24.186605  0.581848
   scf:    3     -609.517888     -609.517046     -609.517046  0.002916 24.018694  0.122599
   scf:    4     -609.516847     -609.516554     -609.516554  0.002717 24.061519  0.032163
   scf:    5     -609.516405     -609.516400     -609.516400  0.000437 24.056320  0.003538
   scf:    6     -609.516395     -609.516395     -609.516395  0.000005 24.056282  0.003228
   scf:    7     -609.516352     -609.516352     -609.516352  0.000045 24.056115  0.000207

SCF Convergence by DM+H criterion
max |DM_out - DM_in|         :     0.0000449042
max |H_out - H_in|      (eV) :     0.0002070089
SCF cycle converged after 7 iterations

Using DM_out to compute the final energy and forces
No. of atoms with KB's overlaping orbs in proc 0. Max # of overlaps:       3       6

siesta: E_KS(eV) =             -605.8169

siesta: Atomic forces (eV/Ang):
----------------------------------------
   Tot  305.459843 -339.519928  256.321935
----------------------------------------
   Max  323.781342
   Res  174.564977    sqrt( Sum f_i^2 / 3N )
----------------------------------------
   Max  323.781342    constrained

Stress tensor Voigt[x,y,z,yz,xz,xy] (kbar):      -39.02      -40.48       -2.40        0.24        0.29       -7.83
(Free)E + p*V (eV/cell)     -495.7838
Target enthalpy (eV/cell)     -605.8169

siesta: Program's energy decomposition (eV):
siesta: Ebs     =      -169.192626
siesta: Eions   =       810.513381
siesta: Ena     =       174.928550
siesta: Ekin    =       263.704605
siesta: Enl     =       -32.618140
siesta: Eso     =         0.000000
siesta: Edftu   =         0.000000
siesta: DEna    =       -91.665257
siesta: DUscf   =        24.490453
siesta: DUext   =         3.699436
siesta: Ex      =      -123.057979
siesta: Ec      =       -14.785203
siesta: Exc     =      -137.843182
siesta: EbV     =         0.000000
siesta: eta*DQ  =         0.000000
siesta: Emadel  =         0.000000
siesta: Emeta   =         0.000000
siesta: Emolmec =         0.000000
siesta: Ekinion =         0.000000
siesta: Eharris =      -609.516352
siesta: Etot    =      -605.816916
siesta: FreeEng =      -605.816916

siesta: Final energy (eV):
siesta:  Band Struct. =    -169.192626
siesta:       Kinetic =     263.704605
siesta:       Hartree =     611.003944
siesta:         Edftu =       0.000000
siesta:       Eso     =       0.000000
siesta:    Ext. field =       3.699436
siesta:         Exch. =    -123.057979
siesta:         Corr. =     -14.785203
siesta:     Bulk bias =       0.000000
siesta:   Exch.-corr. =    -137.843182
siesta:  Ion-electron =   -1475.515915
siesta:       Ion-ion =     129.134195
siesta:       Ekinion =       0.000000
siesta: D3 dispersion =       0.000000
siesta:         Total =    -605.816916
siesta:         Fermi =      24.056115

siesta: Atomic forces (eV/Ang):
siesta:      1  304.086081 -323.781342  276.333991
siesta:      2   -5.165354  -17.841152  -10.636438
siesta:      3    6.539116    2.102565   -9.375617
siesta: ----------------------------------------
siesta:    Tot  305.459843 -339.519928  256.321935

siesta: Stress tensor (static) (eV/Ang**3):
siesta:    -0.024352   -0.004897    0.000176
siesta:    -0.004897   -0.025256    0.000151
siesta:     0.000176    0.000151   -0.001493

siesta: Constrained stress tensor (static) (eV/Ang**3):
siesta:    -0.024352   -0.004897    0.000176
siesta:    -0.004897   -0.025256    0.000151
siesta:     0.000176    0.000151   -0.001493

siesta: Cell volume =       6456.676097 Ang**3

siesta: Pressure (static):
siesta:                Solid            Molecule  Units
siesta:           0.00018552          0.00028534  Ry/Bohr**3
siesta:           0.01703375          0.02619897  eV/Ang**3
siesta:          27.29107956         41.97538259  kBar

Basis Enthalpy Calculation:
    Basis Pressure for species 1(H) :      0.2000000 GPa
    Basis Pressure for species 2(O) :      0.2000000 GPa

    Orbital volume contribution        =           0.325007 eV
    (Free)E + p_basis*V_orbitals       =        -605.491909 eV
    (Free)Eharris+ p_basis*V_orbitals  =        -609.191345 eV
WARNING: BASIS_ENTHALPY and BASIS_HARRIS_ENTHALPY files are deprecated. They will be removed in future releases.
Please use system_label.BASIS_ENTHALPY in your scripts instead.

siesta: Electric dipole (a.u.)  =   -0.386971    0.567084   -2.500911
siesta: Electric dipole (Debye) =   -0.983582    1.441384   -6.356682

cite: Please indicate the Siesta version in published work: 5.4.0-42-g45ae6a53d
cite: This calculation has made use of features in the following articles
cite: which we encourage you to cite in published work.
cite: (Please see "fixedMM.siesta.bib" for a BibTeX file.)
        Primary SIESTA paper
          DOI: www.doi.org/10.1088/0953-8984/14/11/302


 QMMM - closing pipes.

timer: Elapsed wall time (sec) =       0.257
timer: CPU execution times (sec):

Routine            Calls   Time/call    Tot.time        %
siesta                 1       0.165       0.165    99.99
Setup                  1       0.059       0.059    35.72
bands                  1       0.000       0.000     0.01
KSV_init               1       0.000       0.000     0.00
IterGeom               5       0.021       0.103    62.44
geom_init              5       0.010       0.052    31.66
state_init             5       0.008       0.039    23.86
hsparse                5       0.000       0.000     0.06
overlap                5       0.000       0.000     0.07
Setup_H0               5       0.002       0.008     4.77
naefs                 10       0.000       0.000     0.10
dnaefs                 5       0.000       0.000     0.05
two-body               5       0.000       0.000     0.00
MolMec                10       0.000       0.000     0.00
kinefsm               10       0.000       0.000     0.11
nlefsm                10       0.000       0.001     0.36
DHSCF_Init             5       0.001       0.007     4.42
DHSCF1                 5       0.000       0.001     0.54
InitMesh               5       0.000       0.001     0.48
INITMESH               5       0.000       0.000     0.01
DHSCF2                 5       0.001       0.006     3.85
REMESH                 5       0.000       0.000     0.03
REORD                127       0.000       0.002     1.23
PHION                  5       0.000       0.000     0.19
COMM_BSC             179       0.000       0.002     1.19
QMMM Potential         5       0.000       0.001     0.67
POISON                46       0.001       0.027    16.51
fft                   92       0.000       0.020    12.04
setup_H               36       0.001       0.034    20.91
DHSCF                 41       0.001       0.045    27.43
DHSCF3                41       0.001       0.039    23.70
rhoofd                41       0.000       0.001     0.44
XC                    41       0.000       0.005     3.13
GXC-CellXC            41       0.000       0.004     2.51
gridxc@cellXC         41       0.000       0.004     2.47
vmat                  41       0.000       0.001     0.34
IterSCF               31       0.001       0.031    18.77
compute_dm            31       0.000       0.001     0.36
diagon                31       0.000       0.001     0.34
r-eigvec              31       0.000       0.000     0.25
r-buildHS             31       0.000       0.000     0.01
rdiag                 31       0.000       0.000     0.23
rdiag1                31       0.000       0.000     0.03
rdiag2                31       0.000       0.000     0.02
rdiag3                31       0.000       0.000     0.10
rdiag4                31       0.000       0.000     0.01
r-buildD              31       0.000       0.000     0.02
MIXER                 26       0.000       0.000     0.06
PostSCF                5       0.002       0.012     7.02
FINAL_HF               5       0.002       0.012     7.00
DHSCF4                 5       0.001       0.006     3.72
QMMM Energy            5       0.000       0.000     0.20
QMMM MM Forces         5       0.000       0.002     1.41
QMMM Vna Forces        5       0.000       0.000     0.07
dfscf                  5       0.000       0.001     0.48
overfsm                5       0.000       0.000     0.06
writeHSX               1       0.000       0.000     0.02
state_analysis         5       0.000       0.000     0.18
siesta_move            5       0.002       0.008     4.65
Analysis               1       0.000       0.000     0.13
optical                1       0.000       0.000     0.00
  

>> End of run:   5-SEP-2025  14:33:12
Job completed
