Siesta Version  : 5.0.0-alpha-123-gfb8fd7d02
Architecture    : ----
Compiler version: GNU-11.4.0
Compiler flags  : -fallow-argument-mismatch;-O3 -march=native
PP flags        : ----
Libraries       : ----
Parallelisations: none
GEMM3M support
NetCDF support
NetCDF-4 support
Lua support

Runtime information:
* Directory : /home/fnpedron/Siesta/siesta-dev/Tests/15.TDDFT/work/TDDFT_h2o2
* Running in serial mode.
>> Start of run:  28-SEP-2023  15:40:43

                           *********************** 
                           *  WELCOME TO SIESTA  * 
                           *********************** 

reinit: Reading from standard input
reinit: Dumping input in INPUT_TMP.36643
************************** Dump of input data file ****************************
SystemName TDDFT_h2o
SystemLabel TDDFT_h2o
################################################################
xc.functional LDA
xc.authors CA
Atom.Ignore.Ghosts
MeshCutoff 150.0 Ry
SolutionMethod diagon
ElectronicTemperature 5 meV
DM.MixingWeight 0.2
DM.NumberPulay 3
################################################################
MD.TypeOfRun         TDED
MD.FinalTimeStep     5
MD.UseSaveXV         T
TDED.TimeStep   1.00E-03 fs
TDED.Nsteps 5
###############################################################
NumberOfAtoms 3
NumberOfSpecies 2
%block ChemicalSpeciesLabel
1 8 O
2 1 H
%endblock ChemicalSpeciesLabel
PAO.BasisSize DZP
LatticeConstant 10.0 Ang
%block LatticeVectors
1.0 0.0 0.0
0.0 1.0 0.0
0.0 0.0 1.0
%endblock LatticeVectors
AtomicCoordinatesFormat NotScaledCartesianAng
%block AtomicCoordinatesAndAtomicSpecies
0.401406    0.437428    0.768445 1
0.004485   -0.004402    0.000174 2
0.004730   -0.004345    1.536873 2
%endblock AtomicCoordinatesAndAtomicSpecies
************************** End of input data file *****************************

reinit: -----------------------------------------------------------------------
reinit: System Name: TDDFT_h2o
reinit: -----------------------------------------------------------------------
reinit: System Label: TDDFT_h2o
reinit: -----------------------------------------------------------------------

initatom: Reading input for the pseudopotentials and atomic orbitals ----------
Species number:   1 Atomic number:    8 Label: O
Species number:   2 Atomic number:    1 Label: H


---- Processing specs for species: O
Ground state valence configuration:   2s02  2p04
Reading pseudopotential information in formatted form from:
  /home/fnpedron/Siesta/siesta-dev/Tests/Pseudos/O.psf

---- Processing specs for species: H
Ground state valence configuration:   1s01
Reading pseudopotential information in formatted form from:
  /home/fnpedron/Siesta/siesta-dev/Tests/Pseudos/H.psf

---- Pseudopotential check for O 

Pseudized shells:
2s( 2.00) rc: 1.14
2p( 4.00) rc: 1.14
3d( 0.00) rc: 1.14
4f( 0.00) rc: 1.14
Valence configuration for ps generation: (assumed as above)

---- Pseudopotential check for H 

Pseudized shells:
1s( 1.00) rc: 1.25
2p( 0.00) rc: 1.25
3d( 0.00) rc: 1.25
4f( 0.00) rc: 1.25
Valence configuration for ps generation: (assumed as above)
For O, standard SIESTA heuristics set lmxkb to 3
 (one more than the basis l, including polarization orbitals).
Use PS.lmax or PS.KBprojectors blocks to override.
For H, standard SIESTA heuristics set lmxkb to 2
 (one more than the basis l, including polarization orbitals).
Use PS.lmax or PS.KBprojectors blocks to override.

<basis_specs>
===============================================================================
O                    Z=   8    Mass=  15.999        Charge= 0.17977+309
Lmxo=2 Lmxkb= 3    BasisType=split      Semic=F
L=0  Nsemic=0  Cnfigmx=2
          i=1  nzeta=2  polorb=0  (2s)
            splnorm:   0.15000    
               vcte:    40.000    
               rinn:  -0.90000    
               qcoe:    0.0000    
               qyuk:    0.0000    
               qwid:   0.10000E-01
                rcs:    0.0000      0.0000    
            lambdas:    1.0000      1.0000    
L=1  Nsemic=0  Cnfigmx=2
          i=1  nzeta=2  polorb=1  (2p)  (to be polarized perturbatively)
            splnorm:   0.15000    
               vcte:    40.000    
               rinn:  -0.90000    
               qcoe:    0.0000    
               qyuk:    0.0000    
               qwid:   0.10000E-01
                rcs:    0.0000      0.0000    
            lambdas:    1.0000      1.0000    
L=2  Nsemic=0  Cnfigmx=3
          i=1  nzeta=0  polorb=0  (3d)  (perturbative polarization orbital) (from 2p)
-------------------------------------------------------------------------------
L=0  Nkbl=1  erefs: 0.17977+309
L=1  Nkbl=1  erefs: 0.17977+309
L=2  Nkbl=1  erefs: 0.17977+309
L=3  Nkbl=1  erefs: 0.17977+309
===============================================================================
</basis_specs>

Using PAO.SplitTailNorm
atom: Called for O                     (Z =   8)
Maximum radius (at nrval) set to   50.00000 8518

read_vps: Pseudopotential generation method:
read_vps: ATM3      Troullier-Martins                       
Valence charge in pseudo generation:    6.00000

xc_check: Exchange-correlation functional:
xc_check: Ceperley-Alder
V l=0 = -2*Zval/r beyond r=  1.1366
V l=1 = -2*Zval/r beyond r=  1.1332
V l=2 = -2*Zval/r beyond r=  1.1298
V l=3 = -2*Zval/r beyond r=  1.1264
All V_l potentials equal beyond r=  1.1355
This should be close to max(r_c) in ps generation
All pots = -2*Zval/r beyond r=  1.1366
Using small-core scheme (local charge) for Vlocal

VLOCAL_FROM_CHLOCAL: 99.0% of the norm of Vloc inside     33.667 Ry
VLOCAL_FROM_CHLOCAL: 99.9% of the norm of Vloc inside     76.727 Ry
atom: Maximum radius for chlocal:    1.37241
atom: Maximum radius for r*vlocal+2*Zval:    1.25469

KBgen: Kleinman-Bylander projectors: 
GHOST: No ghost state for L =  0
   l= 0   rc=  1.293209   el= -1.742414   Ekb=  9.076872   kbcos=  0.325320
GHOST: No ghost state for L =  1
   l= 1   rc=  1.284119   el= -0.676589   Ekb= -8.194485   kbcos= -0.396010
GHOST: No ghost state for L =  2
   l= 2   rc=  1.433152   el=  0.013307   Ekb= -2.071665   kbcos= -0.003690
GHOST: No ghost state for L =  3
   l= 3   rc=  1.540891   el=  0.019584   Ekb= -0.817137   kbcos= -0.000371

KBgen: Total number of Kleinman-Bylander projectors:  16
atom: -------------------------------------------------------------------------

atom: SANKEY-TYPE ORBITALS:
atom: Selected multiple-zeta basis: split     

SPLIT: Orbitals with angular momentum L= 0

SPLIT: Basis orbitals for state 2s

SPLIT: PAO cut-off radius determined from an
SPLIT: energy shift=  0.010000 Ry
Split based on tail norm

   izeta = 1
                 lambda =    1.000000
                     rc =    3.560943
                 energy =   -1.731321
                kinetic =    1.587329
    potential(screened) =   -3.318651
       potential(ionic) =  -11.260325

   izeta = 2
                 rmatch =    2.319910
              splitnorm =    0.150000
                 energy =   -1.319217
                kinetic =    2.736746
    potential(screened) =   -4.055963
       potential(ionic) =  -12.745464

SPLIT: Orbitals with angular momentum L= 1

SPLIT: Basis orbitals for state 2p

SPLIT: PAO cut-off radius determined from an
SPLIT: energy shift=  0.010000 Ry
Split based on tail norm

   izeta = 1
                 lambda =    1.000000
                     rc =    4.290924
                 energy =   -0.665565
                kinetic =    4.934810
    potential(screened) =   -5.600376
       potential(ionic) =  -13.346429

   izeta = 2
                 rmatch =    2.782200
              splitnorm =    0.150000
                 energy =   -0.468052
                kinetic =    6.936835
    potential(screened) =   -7.404886
       potential(ionic) =  -15.957492

POLgen: Perturbative polarization orbital with L=  2

POLgen: Polarization orbital for state 2p
Split based on tail norm

   izeta = 1
                     rc =    4.290924
                 energy =    2.236783
                kinetic =    4.278617
    potential(screened) =   -2.041834
       potential(ionic) =   -8.171412
atom: Total number of Sankey-type orbitals: 13

atm_pop: Valence configuration (for local Pseudopot. screening):
 2s( 2.00)                                                            
 2p( 4.00)                                                            
 3d( 0.00)                                                            
Vna: chval, zval:    6.00000   6.00000

Vna:  Cut-off radius for the neutral-atom potential:   4.290924

atom: _________________________________________________________________________

<basis_specs>
===============================================================================
H                    Z=   1    Mass=  1.0080        Charge= 0.17977+309
Lmxo=1 Lmxkb= 2    BasisType=split      Semic=F
L=0  Nsemic=0  Cnfigmx=1
          i=1  nzeta=2  polorb=1  (1s)  (to be polarized perturbatively)
            splnorm:   0.15000    
               vcte:    40.000    
               rinn:  -0.90000    
               qcoe:    0.0000    
               qyuk:    0.0000    
               qwid:   0.10000E-01
                rcs:    0.0000      0.0000    
            lambdas:    1.0000      1.0000    
L=1  Nsemic=0  Cnfigmx=2
          i=1  nzeta=0  polorb=0  (2p)  (perturbative polarization orbital) (from 1s)
-------------------------------------------------------------------------------
L=0  Nkbl=1  erefs: 0.17977+309
L=1  Nkbl=1  erefs: 0.17977+309
L=2  Nkbl=1  erefs: 0.17977+309
===============================================================================
</basis_specs>

Using PAO.SplitTailNorm
atom: Called for H                     (Z =   1)
Maximum radius (at nrval) set to   50.00000 8518

read_vps: Pseudopotential generation method:
read_vps: ATM3      Troullier-Martins                       
Valence charge in pseudo generation:    1.00000

xc_check: Exchange-correlation functional:
xc_check: Ceperley-Alder
V l=0 = -2*Zval/r beyond r=  1.2384
V l=1 = -2*Zval/r beyond r=  1.2321
V l=2 = -2*Zval/r beyond r=  1.2272
All V_l potentials equal beyond r=  1.2371
This should be close to max(r_c) in ps generation
All pots = -2*Zval/r beyond r=  1.2384
Using small-core scheme (local charge) for Vlocal

VLOCAL_FROM_CHLOCAL: 99.0% of the norm of Vloc inside     28.363 Ry
VLOCAL_FROM_CHLOCAL: 99.9% of the norm of Vloc inside     64.639 Ry
atom: Maximum radius for chlocal:    1.44620
atom: Maximum radius for r*vlocal+2*Zval:    1.31026

KBgen: Kleinman-Bylander projectors: 
GHOST: No ghost state for L =  0
   l= 0   rc=  1.364142   el= -0.467325   Ekb= -2.009475   kbcos= -0.336680
GHOST: No ghost state for L =  1
   l= 1   rc=  1.430269   el=  0.007562   Ekb= -0.503817   kbcos= -0.022554
GHOST: No ghost state for L =  2
   l= 2   rc=  1.469686   el=  0.013286   Ekb= -0.191752   kbcos= -0.002430

KBgen: Total number of Kleinman-Bylander projectors:   9
atom: -------------------------------------------------------------------------

atom: SANKEY-TYPE ORBITALS:
atom: Selected multiple-zeta basis: split     

SPLIT: Orbitals with angular momentum L= 0

SPLIT: Basis orbitals for state 1s

SPLIT: PAO cut-off radius determined from an
SPLIT: energy shift=  0.010000 Ry
Split based on tail norm

   izeta = 1
                 lambda =    1.000000
                     rc =    5.285354
                 energy =   -0.456120
                kinetic =    0.900445
    potential(screened) =   -1.356565
       potential(ionic) =   -1.890080

   izeta = 2
                 rmatch =    3.582433
              splitnorm =    0.150000
                 energy =   -0.289774
                kinetic =    1.649095
    potential(screened) =   -1.938868
       potential(ionic) =   -2.516427

POLgen: Perturbative polarization orbital with L=  1

POLgen: Polarization orbital for state 1s
Split based on tail norm

   izeta = 1
                     rc =    5.285354
                 energy =    0.642323
                kinetic =    1.282472
    potential(screened) =   -0.640149
       potential(ionic) =   -1.117275
atom: Total number of Sankey-type orbitals:  5

atm_pop: Valence configuration (for local Pseudopot. screening):
 1s( 1.00)                                                            
 2p( 0.00)                                                            
Vna: chval, zval:    1.00000   1.00000

Vna:  Cut-off radius for the neutral-atom potential:   5.285354

atom: _________________________________________________________________________

prinput: Basis input 

PAO.BasisType split     

%block ChemicalSpeciesLabel
    1    8 O                       # Species index, atomic number, species label
    2    1 H                       # Species index, atomic number, species label
%endblock ChemicalSpeciesLabel

%block PAO.Basis                 # Define Basis set
# WARNING: This information might be incomplete!
O                     2                    # Species label, number of l-shells
 n=2   0   2                         # n, l, Nzeta 
   3.561      2.320   
   1.000      1.000   
 n=2   1   2 P   1                   # n, l, Nzeta, Polarization, NzetaPol
   4.291      2.782   
   1.000      1.000   
H                     1                    # Species label, number of l-shells
 n=1   0   2 P   1                   # n, l, Nzeta, Polarization, NzetaPol
   5.285      3.582   
   1.000      1.000   
%endblock PAO.Basis

prinput: ----------------------------------------------------------------------

Dumping basis to NetCDF file O.ion.nc
Dumping basis to NetCDF file H.ion.nc
coor:   Atomic-coordinates input format  =     Cartesian coordinates
coor:                                          (in Angstroms)

iotdxv: Reading coordinates and velocities from file
! Info in TDXV file prevails over previous structure input

siesta: Atomic coordinates (Bohr) and species
siesta:      0.75855   0.82662   1.45215  1        1
siesta:      0.00848  -0.00832   0.00033  2        2
siesta:      0.00894  -0.00821   2.90427  2        3

siesta: System type = molecule  

initatomlists: Number of atoms, orbitals, and projectors:      3    23    34

siesta: ******************** Simulation parameters ****************************
siesta:
siesta: The following are some of the parameters of the simulation.
siesta: A complete list of the parameters used, including default values,
siesta: can be found in file out.fdf
siesta:
redata: Spin configuration                          = none
redata: Number of spin components                   = 1
redata: Time-Reversal Symmetry                      = T
redata: Spin spiral                                 = F
redata: Long output                                 =   F
redata: Number of Atomic Species                    =        2
redata: Charge density info will appear in .RHO file
redata: Write Mulliken Pop.                         = NO
redata: Matel table size (NRTAB)                    =     1024
redata: Mesh Cutoff                                 =   150.0000 Ry
redata: Net charge of the system                    =     0.0000 |e|
redata: Min. number of SCF Iter                     =        0
redata: Max. number of SCF Iter                     =     1000
redata: SCF convergence failure will abort job
redata: SCF mix quantity                            = Hamiltonian
redata: Mix DM or H after convergence               =   F
redata: Recompute H after scf cycle                 =   F
redata: Mix DM in first SCF step                    =   T
redata: Write Pulay info on disk                    =   F
redata: New DM Occupancy tolerance                  = 0.000000000001
redata: No kicks to SCF
redata: DM Mixing Weight for Kicks                  =     0.5000
redata: Require Harris convergence for SCF          =   F
redata: Harris energy tolerance for SCF             =     0.000100 eV
redata: Require DM convergence for SCF              =   T
redata: DM tolerance for SCF                        =     0.000100
redata: Require EDM convergence for SCF             =   F
redata: EDM tolerance for SCF                       =     0.001000 eV
redata: Require H convergence for SCF               =   T
redata: Hamiltonian tolerance for SCF               =     0.001000 eV
redata: Require (free) Energy convergence for SCF   =   F
redata: (free) Energy tolerance for SCF             =     0.000100 eV
redata: Using DFT-D3 dispersion                     =   F
redata: Using Saved Data (generic)                  =   F
redata: Use continuation files for DM               =   F
redata: Neglect nonoverlap interactions             =   F
redata: Method of Calculation                       = Diagonalization
redata: Electronic Temperature                      =    58.0226 K
redata: Fix the spin of the system                  =   F
redata: Max. number of TDED Iter                    =        5
redata: Number of TDED substeps                     =        3
redata: Dynamics option                             = Verlet MD run
redata: Initial MD time step                        =        1
redata:   Final MD time step                        =        5
redata: Length of MD time step                      =     0.0050 fs
redata: Length of TDED time step                    =     0.0010 fs
redata: Initial Temperature of MD run               =     0.0000 K
redata: Perform a MD quench                         =   F
mix.SCF: Pulay mixing                            = Pulay
mix.SCF:    Variant                              = stable
mix.SCF:    History steps                        = 3
mix.SCF:    Linear mixing weight                 =     0.200000
mix.SCF:    Mixing weight                        =     0.200000
mix.SCF:    SVD condition                        = 0.1000E-07
redata: Save all siesta data in one NC              =   F
redata: ***********************************************************************

%block SCF.Mixers
  Pulay
%endblock SCF.Mixers

%block SCF.Mixer.Pulay
  # Mixing method
  method pulay
  variant stable

  # Mixing options
  weight 0.2000
  weight.linear 0.2000
  history 3
%endblock SCF.Mixer.Pulay

Size of DM history Fstack: 1
Total number of electrons:     8.000000
Total ionic charge:     8.000000

siesta: k-grid: Number of k-points = 1
siesta: k-point is Gamma-only

diag: Algorithm                                     = D&C
diag: Used triangular part                          = Lower
diag: Absolute tolerance                            =  0.100E-15
diag: Orthogonalization factor                      =  0.100E-05
diag: Memory factor                                 =  1.0000


ts: **************************************************************
ts: Save H and S matrices                           =    F
ts: Save DM and EDM matrices                        =    F
ts: Only save the overlap matrix S                  =    F
ts: **************************************************************

************************ Begin: TS CHECKS AND WARNINGS ************************
************************ End: TS CHECKS AND WARNINGS **************************


                     ====================================
                        Begin MD step =      1
                     ====================================

outcell: Unit cell vectors (Ang):
       10.000004    0.000000    0.000000
        0.000000   10.000004    0.000000
        0.000000    0.000000   10.000004

outcell: Cell vector modules (Ang)   :   10.000004   10.000004   10.000004
outcell: Cell angles (23,13,12) (deg):     90.0000     90.0000     90.0000
outcell: Cell volume (Ang**3)        :   1000.0012
<dSpData1D:S at geom step 1
  <sparsity:sparsity for geom step 1
    nrows_g=23 nrows=23 sparsity=1.0000 nnzs=529, refcount: 7>
  <dData1D:(new from dSpData1D) n=529, refcount: 1>
refcount: 1>
new_DM -- step:     1
Initializing Density Matrix...
DM filled with atomic data:
<dSpData2D:DM initialized from atoms
  <sparsity:sparsity for geom step 1
    nrows_g=23 nrows=23 sparsity=1.0000 nnzs=529, refcount: 8>
  <dData2D:DM n=529 m=1, refcount: 1>
refcount: 1>
No. of atoms with KB's overlaping orbs in proc 0. Max # of overlaps:       3      23

InitMesh: MESH = 80 x 80 x 80 = 512000
InitMesh: Mesh cutoff (required, used) =   150.000   176.881 Ry
New grid distribution [1]: sub = 2

iowavef: reading initial KS wavefunctions from file
Computing DM from initial KS wavefunctions

                   ************************
                     TDED Step = 1
                   ************************

cn_evolg: TDED time step (fs)      =         0.001000

cn_evolg: Computing DM after evolving TDKS wavefunctions

                   ************************
                     TDED Step = 2
                   ************************

siesta: E_KS(eV) =             -465.5142

cn_evolg: Computing DM after evolving TDKS wavefunctions

                   ************************
                     TDED Step = 3
                   ************************

siesta: E_KS(eV) =             -465.5142

cn_evolg: Computing DM after evolving TDKS wavefunctions

                   ************************
                     TDED Step = 4
                   ************************

siesta: E_KS(eV) =             -465.5142

cn_evolg: Computing DM after evolving TDKS wavefunctions

                   ************************
                     TDED Step = 5
                   ************************

siesta: E_KS(eV) =             -465.5142

cn_evolg: Computing DM after evolving TDKS wavefunctions
No. of atoms with KB's overlaping orbs in proc 0. Max # of overlaps:       3      23

siesta: E_KS(eV) =             -465.5142

siesta: E_KS - E_eggbox =      -465.5142

siesta: Atomic forces (eV/Ang):
----------------------------------------
   Tot   -0.038058   -0.018272   -0.015081
----------------------------------------
   Max    1.179069
   Res    0.719562    sqrt( Sum f_i^2 / 3N )
----------------------------------------
   Max    1.179069    constrained

Stress tensor Voigt[x,y,z,yz,xz,xy] (kbar):        0.49        0.59        2.90       -0.00       -0.00        0.51
(Free)E + p*V (eV/cell)     -466.3419
Target enthalpy (eV/cell)     -465.5142

siesta: Stress tensor (static) (eV/Ang**3):
         0.000307    0.000337    0.000000
         0.000315    0.000367    0.000000
        -0.000000   -0.000001    0.001809

siesta: Pressure (static):         -1.32610524  kBar

siesta: Stress tensor (total) (eV/Ang**3):
         0.000307    0.000337    0.000000
         0.000315    0.000367    0.000000
        -0.000000   -0.000001    0.001809

siesta: Pressure (total):         -1.32610524  kBar

siesta: Temp_ion =       0.000 K

                     ====================================
                        Begin MD step =      2
                     ====================================

outcell: Unit cell vectors (Ang):
       10.000004    0.000000    0.000000
        0.000000   10.000004    0.000000
        0.000000    0.000000   10.000004

outcell: Cell vector modules (Ang)   :   10.000004   10.000004   10.000004
outcell: Cell angles (23,13,12) (deg):     90.0000     90.0000     90.0000
outcell: Cell volume (Ang**3)        :   1000.0012
<dSpData1D:S at geom step 2
  <sparsity:sparsity for geom step 2
    nrows_g=23 nrows=23 sparsity=1.0000 nnzs=529, refcount: 7>
  <dData1D:(new from dSpData1D) n=529, refcount: 1>
refcount: 1>
new_DM -- step:     2
Initializing Density Matrix...
DM filled with atomic data:
<dSpData2D:DM initialized from atoms
  <sparsity:sparsity for geom step 2
    nrows_g=23 nrows=23 sparsity=1.0000 nnzs=529, refcount: 8>
  <dData2D:DM n=529 m=1, refcount: 1>
refcount: 1>
No. of atoms with KB's overlaping orbs in proc 0. Max # of overlaps:       3      23

InitMesh: MESH = 80 x 80 x 80 = 512000
InitMesh: Mesh cutoff (required, used) =   150.000   176.881 Ry
New grid distribution [1]: sub = 2
chgbasis: Computing DM in new basis

                   ************************
                     TDED Step = 1
                   ************************

siesta: E_KS(eV) =             -465.5142

cn_evolg: Computing DM after evolving TDKS wavefunctions

                   ************************
                     TDED Step = 2
                   ************************

siesta: E_KS(eV) =             -465.5142

cn_evolg: Computing DM after evolving TDKS wavefunctions

                   ************************
                     TDED Step = 3
                   ************************

siesta: E_KS(eV) =             -465.5142

cn_evolg: Computing DM after evolving TDKS wavefunctions

                   ************************
                     TDED Step = 4
                   ************************

siesta: E_KS(eV) =             -465.5142

cn_evolg: Computing DM after evolving TDKS wavefunctions

                   ************************
                     TDED Step = 5
                   ************************

siesta: E_KS(eV) =             -465.5141

cn_evolg: Computing DM after evolving TDKS wavefunctions
No. of atoms with KB's overlaping orbs in proc 0. Max # of overlaps:       3      23

siesta: E_KS(eV) =             -465.5141

siesta: Atomic forces (eV/Ang):
----------------------------------------
   Tot   -0.038326   -0.018086   -0.013668
----------------------------------------
   Max    0.220590
   Res    0.113366    sqrt( Sum f_i^2 / 3N )
----------------------------------------
   Max    0.220590    constrained

Stress tensor Voigt[x,y,z,yz,xz,xy] (kbar):       -0.03       -0.06        0.54       -0.00       -0.00       -0.08
(Free)E + p*V (eV/cell)     -465.6079
Target enthalpy (eV/cell)     -465.5141

siesta: Stress tensor (static) (eV/Ang**3):
        -0.000017   -0.000023   -0.000000
        -0.000050   -0.000039   -0.000000
        -0.000000   -0.000000    0.000337

siesta: Pressure (static):         -0.15024705  kBar

siesta: Stress tensor (total) (eV/Ang**3):
        -0.000017   -0.000023   -0.000000
        -0.000050   -0.000039   -0.000000
        -0.000000   -0.000000    0.000337

siesta: Pressure (total):         -0.15024705  kBar

siesta: Temp_ion =       0.001 K

                     ====================================
                        Begin MD step =      3
                     ====================================

outcell: Unit cell vectors (Ang):
       10.000004    0.000000    0.000000
        0.000000   10.000004    0.000000
        0.000000    0.000000   10.000004

outcell: Cell vector modules (Ang)   :   10.000004   10.000004   10.000004
outcell: Cell angles (23,13,12) (deg):     90.0000     90.0000     90.0000
outcell: Cell volume (Ang**3)        :   1000.0012
<dSpData1D:S at geom step 3
  <sparsity:sparsity for geom step 3
    nrows_g=23 nrows=23 sparsity=1.0000 nnzs=529, refcount: 7>
  <dData1D:(new from dSpData1D) n=529, refcount: 1>
refcount: 1>
new_DM -- step:     3
Initializing Density Matrix...
DM filled with atomic data:
<dSpData2D:DM initialized from atoms
  <sparsity:sparsity for geom step 3
    nrows_g=23 nrows=23 sparsity=1.0000 nnzs=529, refcount: 8>
  <dData2D:DM n=529 m=1, refcount: 1>
refcount: 1>
No. of atoms with KB's overlaping orbs in proc 0. Max # of overlaps:       3      23

InitMesh: MESH = 80 x 80 x 80 = 512000
InitMesh: Mesh cutoff (required, used) =   150.000   176.881 Ry
New grid distribution [1]: sub = 2
chgbasis: Computing DM in new basis

                   ************************
                     TDED Step = 1
                   ************************

siesta: E_KS(eV) =             -465.5141

cn_evolg: Computing DM after evolving TDKS wavefunctions

                   ************************
                     TDED Step = 2
                   ************************

siesta: E_KS(eV) =             -465.5141

cn_evolg: Computing DM after evolving TDKS wavefunctions

                   ************************
                     TDED Step = 3
                   ************************

siesta: E_KS(eV) =             -465.5141

cn_evolg: Computing DM after evolving TDKS wavefunctions

                   ************************
                     TDED Step = 4
                   ************************

siesta: E_KS(eV) =             -465.5141

cn_evolg: Computing DM after evolving TDKS wavefunctions

                   ************************
                     TDED Step = 5
                   ************************

siesta: E_KS(eV) =             -465.5141

cn_evolg: Computing DM after evolving TDKS wavefunctions
No. of atoms with KB's overlaping orbs in proc 0. Max # of overlaps:       3      23

siesta: E_KS(eV) =             -465.5141

siesta: Atomic forces (eV/Ang):
----------------------------------------
   Tot   -0.038696   -0.017693   -0.012172
----------------------------------------
   Max    1.084619
   Res    0.738293    sqrt( Sum f_i^2 / 3N )
----------------------------------------
   Max    1.084619    constrained

Stress tensor Voigt[x,y,z,yz,xz,xy] (kbar):       -0.57       -0.75       -2.43        0.00        0.00       -0.70
(Free)E + p*V (eV/cell)     -464.7335
Target enthalpy (eV/cell)     -465.5141

siesta: Stress tensor (static) (eV/Ang**3):
        -0.000357   -0.000402   -0.000000
        -0.000437   -0.000470   -0.000001
         0.000000    0.000000   -0.001515

siesta: Pressure (static):          1.25055663  kBar

siesta: Stress tensor (total) (eV/Ang**3):
        -0.000357   -0.000402   -0.000000
        -0.000437   -0.000470   -0.000001
         0.000000    0.000000   -0.001515

siesta: Pressure (total):          1.25055677  kBar

siesta: Temp_ion =       0.000 K

                     ====================================
                        Begin MD step =      4
                     ====================================

outcell: Unit cell vectors (Ang):
       10.000004    0.000000    0.000000
        0.000000   10.000004    0.000000
        0.000000    0.000000   10.000004

outcell: Cell vector modules (Ang)   :   10.000004   10.000004   10.000004
outcell: Cell angles (23,13,12) (deg):     90.0000     90.0000     90.0000
outcell: Cell volume (Ang**3)        :   1000.0012
<dSpData1D:S at geom step 4
  <sparsity:sparsity for geom step 4
    nrows_g=23 nrows=23 sparsity=1.0000 nnzs=529, refcount: 7>
  <dData1D:(new from dSpData1D) n=529, refcount: 1>
refcount: 1>
new_DM -- step:     4
Initializing Density Matrix...
DM filled with atomic data:
<dSpData2D:DM initialized from atoms
  <sparsity:sparsity for geom step 4
    nrows_g=23 nrows=23 sparsity=1.0000 nnzs=529, refcount: 8>
  <dData2D:DM n=529 m=1, refcount: 1>
refcount: 1>
No. of atoms with KB's overlaping orbs in proc 0. Max # of overlaps:       3      23

InitMesh: MESH = 80 x 80 x 80 = 512000
InitMesh: Mesh cutoff (required, used) =   150.000   176.881 Ry
New grid distribution [1]: sub = 2
chgbasis: Computing DM in new basis

                   ************************
                     TDED Step = 1
                   ************************

siesta: E_KS(eV) =             -465.5141

cn_evolg: Computing DM after evolving TDKS wavefunctions

                   ************************
                     TDED Step = 2
                   ************************

siesta: E_KS(eV) =             -465.5141

cn_evolg: Computing DM after evolving TDKS wavefunctions

                   ************************
                     TDED Step = 3
                   ************************

siesta: E_KS(eV) =             -465.5140

cn_evolg: Computing DM after evolving TDKS wavefunctions

                   ************************
                     TDED Step = 4
                   ************************

siesta: E_KS(eV) =             -465.5140

cn_evolg: Computing DM after evolving TDKS wavefunctions

                   ************************
                     TDED Step = 5
                   ************************

siesta: E_KS(eV) =             -465.5140

cn_evolg: Computing DM after evolving TDKS wavefunctions
No. of atoms with KB's overlaping orbs in proc 0. Max # of overlaps:       3      23

siesta: E_KS(eV) =             -465.5140

siesta: Atomic forces (eV/Ang):
----------------------------------------
   Tot   -0.039019   -0.017067   -0.011434
----------------------------------------
   Max    1.987613
   Res    1.245929    sqrt( Sum f_i^2 / 3N )
----------------------------------------
   Max    1.987613    constrained

Stress tensor Voigt[x,y,z,yz,xz,xy] (kbar):       -0.83       -1.08       -4.88        0.00       -0.00       -0.99
(Free)E + p*V (eV/cell)     -464.1015
Target enthalpy (eV/cell)     -465.5140

siesta: Stress tensor (static) (eV/Ang**3):
        -0.000516   -0.000579   -0.000001
        -0.000621   -0.000674   -0.000001
        -0.000000    0.000000   -0.003048

siesta: Pressure (static):          2.26309564  kBar

siesta: Stress tensor (total) (eV/Ang**3):
        -0.000516   -0.000579   -0.000001
        -0.000621   -0.000674   -0.000001
        -0.000000    0.000000   -0.003048

siesta: Pressure (total):          2.26309567  kBar

siesta: Temp_ion =       0.002 K

                     ====================================
                        Begin MD step =      5
                     ====================================

outcell: Unit cell vectors (Ang):
       10.000004    0.000000    0.000000
        0.000000   10.000004    0.000000
        0.000000    0.000000   10.000004

outcell: Cell vector modules (Ang)   :   10.000004   10.000004   10.000004
outcell: Cell angles (23,13,12) (deg):     90.0000     90.0000     90.0000
outcell: Cell volume (Ang**3)        :   1000.0012
<dSpData1D:S at geom step 5
  <sparsity:sparsity for geom step 5
    nrows_g=23 nrows=23 sparsity=1.0000 nnzs=529, refcount: 7>
  <dData1D:(new from dSpData1D) n=529, refcount: 1>
refcount: 1>
new_DM -- step:     5
Initializing Density Matrix...
DM filled with atomic data:
<dSpData2D:DM initialized from atoms
  <sparsity:sparsity for geom step 5
    nrows_g=23 nrows=23 sparsity=1.0000 nnzs=529, refcount: 8>
  <dData2D:DM n=529 m=1, refcount: 1>
refcount: 1>
No. of atoms with KB's overlaping orbs in proc 0. Max # of overlaps:       3      23

InitMesh: MESH = 80 x 80 x 80 = 512000
InitMesh: Mesh cutoff (required, used) =   150.000   176.881 Ry
New grid distribution [1]: sub = 2
chgbasis: Computing DM in new basis

                   ************************
                     TDED Step = 1
                   ************************

siesta: E_KS(eV) =             -465.5140

cn_evolg: Computing DM after evolving TDKS wavefunctions

                   ************************
                     TDED Step = 2
                   ************************

siesta: E_KS(eV) =             -465.5140

cn_evolg: Computing DM after evolving TDKS wavefunctions

                   ************************
                     TDED Step = 3
                   ************************

siesta: E_KS(eV) =             -465.5139

cn_evolg: Computing DM after evolving TDKS wavefunctions

                   ************************
                     TDED Step = 4
                   ************************

siesta: E_KS(eV) =             -465.5139

cn_evolg: Computing DM after evolving TDKS wavefunctions

                   ************************
                     TDED Step = 5
                   ************************

siesta: E_KS(eV) =             -465.5139

cn_evolg: Computing DM after evolving TDKS wavefunctions
No. of atoms with KB's overlaping orbs in proc 0. Max # of overlaps:       3      23

siesta: E_KS(eV) =             -465.5138

siesta: Atomic forces (eV/Ang):
----------------------------------------
   Tot   -0.039244   -0.016230   -0.012011
----------------------------------------
   Max    2.369685
   Res    1.268844    sqrt( Sum f_i^2 / 3N )
----------------------------------------
   Max    2.369685    constrained

Stress tensor Voigt[x,y,z,yz,xz,xy] (kbar):       -0.60       -0.80       -5.82       -0.00       -0.00       -0.74
(Free)E + p*V (eV/cell)     -464.0117
Target enthalpy (eV/cell)     -465.5138

siesta: Stress tensor (static) (eV/Ang**3):
        -0.000375   -0.000422   -0.000001
        -0.000461   -0.000497   -0.000001
        -0.000000   -0.000000   -0.003635

siesta: Pressure (static):          2.40660366  kBar

siesta: Stress tensor (total) (eV/Ang**3):
        -0.000375   -0.000422   -0.000001
        -0.000461   -0.000497   -0.000001
        -0.000000   -0.000000   -0.003635

siesta: Pressure (total):          2.40660431  kBar

siesta: Temp_ion =       0.014 K

siesta: Program's energy decomposition (eV):
siesta: Ebs     =      -104.539104
siesta: Eions   =       810.513381
siesta: Ena     =       174.034835
siesta: Ekin    =       351.372049
siesta: Enl     =       -64.667115
siesta: Eso     =         0.000000
siesta: Edftu   =         0.000000
siesta: DEna    =         0.009680
siesta: DUscf   =         0.843424
siesta: DUext   =         0.000000
siesta: Ex      =       -99.885534
siesta: Ec      =       -12.593751
siesta: Exc     =      -112.479285
siesta: EbV     =         0.000000
siesta: eta*DQ  =         0.000000
siesta: Emadel  =         0.000000
siesta: Emeta   =         0.000000
siesta: Emolmec =         0.000000
siesta: Ekinion =         0.000004
siesta: Eharris =      -570.052921
siesta: Etot    =      -465.513817
siesta: FreeEng =      -465.513817

siesta: Final energy (eV):
siesta:  Band Struct. =    -104.539104
siesta:       Kinetic =     351.372049
siesta:       Hartree =     454.145117
siesta:         Edftu =       0.000000
siesta:       Eso     =       0.000000
siesta:    Ext. field =       0.000000
siesta:         Exch. =     -99.885534
siesta:         Corr. =     -12.593751
siesta:     Bulk bias =       0.000000
siesta:   Exch.-corr. =    -112.479285
siesta:  Ion-electron =   -1216.658278
siesta:       Ion-ion =      58.106622
siesta:       Ekinion =       0.000004
siesta: D3 dispersion =       0.000000
siesta:         Total =    -465.513817
siesta:         Fermi =       0.000000

siesta: Atomic forces (eV/Ang):
siesta:      1    0.913875    1.147327   -0.006971
siesta:      2   -0.477469   -0.583278   -2.369685
siesta:      3   -0.475649   -0.580278    2.364646
siesta: ----------------------------------------
siesta:    Tot   -0.039244   -0.016230   -0.012011

siesta: Stress tensor (static) (eV/Ang**3):
siesta:    -0.000375   -0.000422   -0.000001
siesta:    -0.000461   -0.000497   -0.000001
siesta:    -0.000000   -0.000000   -0.003635

siesta: Cell volume =       1000.001196 Ang**3

siesta: Pressure (static):
siesta:                Solid            Molecule  Units
siesta:           0.00001636         -0.00000003  Ry/Bohr**3
siesta:           0.00150208         -0.00000282  eV/Ang**3
siesta:           2.40660366         -0.00451988  kBar
(Free)E+ p_basis*V_orbitals  =        -464.801184
(Free)Eharris+ p_basis*V_orbitals  =        -569.340288

siesta: Electric dipole (a.u.)  =   -0.389145   -0.456020    0.000135
siesta: Electric dipole (Debye) =   -0.989108   -1.159088    0.000342

cite: Please see "TDDFT_h2o.bib" for an exhaustive BiBTeX file.
cite: Please clearly indicate Siesta version in published work: 5.0.0-alpha-123-gfb8fd7d02
cite: This calculation has made use of the following articles
cite: which are encouraged to be cited in a published work.
        Primary SIESTA paper
          DOI: www.doi.org/10.1088/0953-8984/14/11/302


timer: Elapsed wall time (sec) =       2.483
timer: CPU execution times (sec):

Routine            Calls   Time/call    Tot.time        %
siesta                 1       2.482       2.482   100.00
Setup                  1       0.070       0.070     2.81
bands                  1       0.000       0.000     0.00
KSV_init               1       0.000       0.000     0.00
IterGeom               5       0.482       2.411    97.18
state_init             5       0.022       0.110     4.42
hsparse                5       0.000       0.000     0.01
overlap                5       0.022       0.109     4.38
Setup_H0               5       0.218       1.088    43.85
naefs                 10       0.000       0.000     0.02
MolMec                10       0.000       0.000     0.00
kinefsm               10       0.011       0.109     4.40
nlefsm                10       0.073       0.727    29.30
DHSCF_Init             5       0.051       0.254    10.23
DHSCF1                 5       0.006       0.029     1.18
INITMESH               5       0.000       0.000     0.00
DHSCF2                 5       0.045       0.225     9.05
REMESH                 5       0.002       0.011     0.43
REORD                100       0.000       0.039     1.58
PHION                  5       0.020       0.099     4.01
COMM_BSC             135       0.000       0.043     1.72
POISON                35       0.016       0.570    22.96
fft                   70       0.006       0.450    18.13
sankey_change_b        5       0.000       0.001     0.03
setup_H               25       0.035       0.863    34.79
DHSCF                 30       0.040       1.203    48.48
DHSCF3                30       0.034       1.032    41.61
rhoofd                30       0.003       0.097     3.92
XC                    30       0.007       0.216     8.72
GXC-CellXC            30       0.006       0.178     7.18
gridxc@cellXC         30       0.006       0.178     7.17
vmat                  30       0.002       0.073     2.95
cn_evolg              25       0.000       0.002     0.07
DHSCF4                 5       0.034       0.170     6.87
dfscf                  5       0.027       0.136     5.47
overfsm                5       0.000       0.001     0.02
state_analysis         5       0.000       0.001     0.03
siesta_move            5       0.000       0.000     0.01
Analysis               1       0.000       0.000     0.01
optical                1       0.000       0.000     0.00
  

>> End of run:  28-SEP-2023  15:40:45
Job completed
