Executable      : /home/fnpedron/Siesta/siesta-dev/_build/Src/siesta
Version         : 5.2.0-17-gad84d481e
Architecture    : x86_64
Compiler version: GNU-11.4.0
Compiler flags  : -fallow-argument-mismatch -O3 -march=native
Environment variables: 
  SIESTA_PS_PATH: /home/fnpedron/Siesta/siesta-dev/Tests/Pseudos
Parallelisations: MPI, OpenMP
* OpenMP version: 201511
NetCDF support
NetCDF-4 support
Lua support
Native ELPA support
ELSI support. Solvers:
   ELPA (internal) 
   NTPoly
   OMM
   PEXSI
DFT-D3 support
Wannier90 wrapper support

Runtime information:
* Directory : /home/fnpedron/Siesta/siesta-dev/_build/Tests/12.Solvers/si-qdot-elsi-elpa-1stage_mpi4_omp1/work
* Running on 4 nodes in parallel.
* Running 1 OpenMP threads.
* Running 4 processes.
* OpenMP NOT bound (please bind threads!)
* OpenMP runtime schedule DYNAMIC, chunks 1
** Changing chunk size:
** OpenMP runtime schedule DYNAMIC, chunks 32
** OpenMP (trying to FORCE nesting)
* OpenMP allows 255 nested levels.
>> Start of run:  17-JAN-2025  14:34:46

                           *********************** 
                           *  WELCOME TO SIESTA  * 
                           *********************** 

 NOTE: Siesta V5 introduces some new defaults for basis-set generation
 NOTE: which might lead to slightly different numerical results.
 NOTE: Please see the manual for full details and compatibility measures.


reinit: Reading from file ../../si-qdot-elsi-elpa-1stage.fdf

reinit: -----------------------------------------------------------------------
reinit: System Name: Si Quantum Dot with ELSI-ELPA (1-stage
reinit: -----------------------------------------------------------------------
reinit: System Label: si-qdot-elsi-elpa
reinit: -----------------------------------------------------------------------

initatom: Reading input for the pseudopotentials and atomic orbitals ----------
Species number:   1 Atomic number:   14 Label: Si
Species number:   2 Atomic number:    1 Label: H

Ground state valence configuration (from tables):   3s02  3p02  3d00  4f00
Ground state valence configuration (from tables):   1s01  2p00  3d00  4f00

---- Processing specs for species: Si
Reading pseudopotential information in formatted form from:
  /home/fnpedron/Siesta/siesta-dev/Tests/Pseudos/Si.psf

---- Processing specs for species: H
Reading pseudopotential information in formatted form from:
  /home/fnpedron/Siesta/siesta-dev/Tests/Pseudos/H.psf

---- Pseudopotential check for Si

Pseudized shells:
3s( 2.00) rc: 1.89
3p( 2.00) rc: 1.89
3d( 0.00) rc: 1.89
4f( 0.00) rc: 1.89
Valence configuration for ps generation: (assumed as above)

---- Pseudopotential check for H 

Pseudized shells:
1s( 1.00) rc: 1.25
2p( 0.00) rc: 1.25
3d( 0.00) rc: 1.25
4f( 0.00) rc: 1.25
Valence configuration for ps generation: (assumed as above)
For Si, standard SIESTA heuristics set lmxkb to 2
 (one more than the basis l, including polarization orbitals).
Use PS.lmax or PS.KBprojectors blocks to override.
For H, standard SIESTA heuristics set lmxkb to 1
 (one more than the basis l, including polarization orbitals).
Use PS.lmax or PS.KBprojectors blocks to override.

<basis_specs>
===============================================================================
Si                   Z=  14    Mass=  28.090        Charge= 0.17977+309
Lmxo=1 Lmxkb= 2    BasisType=split      Semic=F
L=0  Nsemic=0  Cnfigmx=3
          i=1  nzeta=1  polorb=0  (3s)
            splnorm:   0.15000    
               vcte:    40.000    
               rinn:  -0.90000    
               qcoe:    0.0000    
               qyuk:    0.0000    
               qwid:   0.10000E-01
                rcs:    0.0000    
            lambdas:    1.0000    
L=1  Nsemic=0  Cnfigmx=3
          i=1  nzeta=1  polorb=0  (3p)
            splnorm:   0.15000    
               vcte:    40.000    
               rinn:  -0.90000    
               qcoe:    0.0000    
               qyuk:    0.0000    
               qwid:   0.10000E-01
                rcs:    0.0000    
            lambdas:    1.0000    
-------------------------------------------------------------------------------
L=0  Nkbl=1  erefs: 0.17977+309
L=1  Nkbl=1  erefs: 0.17977+309
L=2  Nkbl=1  erefs: 0.17977+309
===============================================================================
</basis_specs>

Using PAO.SplitTailNorm
atom: Called for Si                    (Z =  14)
Maximum radius (at nrval) set to   50.00000 8518

read_vps: Pseudopotential generation method:
read_vps: ATM3      Troullier-Martins                       
Valence charge in pseudo generation:    4.00000

xc_check: Exchange-correlation functional:
xc_check: Ceperley-Alder
V l=0 = -2*Zval/r beyond r=  2.5804
V l=1 = -2*Zval/r beyond r=  2.5804
V l=2 = -2*Zval/r beyond r=  2.5804
All V_l potentials equal beyond r=  1.8748
This should be close to max(r_c) in ps generation
All pots = -2*Zval/r beyond r=  2.5804
Using large-core scheme (fit) for Vlocal

atom: Estimated core radius    2.58045

atom: Including non-local core corrections could be a good idea
Fit of Vlocal with continuous 2nd derivative
Fitting vlocal at       1.8805
Choosing vlocal chloc cutoff:  5647  2.821566
qtot up to nchloc:    4.00020436
atom: Maximum radius for chlocal:    2.82157
atom: Maximum radius for r*vlocal+2*Zval:    2.82157

KBgen: Kleinman-Bylander projectors: 
GHOST: No ghost state for L =  0
   l= 0   rc=  1.874815   el= -0.796617   Ekb=  5.231837   kbcos=  0.315680
GHOST: No ghost state for L =  1
   l= 1   rc=  1.899478   el= -0.307040   Ekb=  2.086599   kbcos=  0.300419
GHOST: No ghost state for L =  2
   l= 2   rc=  1.909049   el=  0.013097   Ekb= -2.503741   kbcos= -0.046936

KBgen: Total number of Kleinman-Bylander projectors:   9
atom: -------------------------------------------------------------------------

atom: SANKEY-TYPE ORBITALS:

SPLIT: Orbitals with angular momentum L= 0

SPLIT: Basis orbitals for state 3s

SPLIT: PAO cut-off radius determined from an
SPLIT: energy shift=  0.022050 Ry
Split based on tail norm

   izeta = 1
                 lambda =    1.000000
                     rc =    4.917490
                 energy =   -0.771719
                kinetic =    0.594730
    potential(screened) =   -1.366449
       potential(ionic) =   -3.854235

SPLIT: Orbitals with angular momentum L= 1

SPLIT: Basis orbitals for state 3p

SPLIT: PAO cut-off radius determined from an
SPLIT: energy shift=  0.022050 Ry
Split based on tail norm

   izeta = 1
                 lambda =    1.000000
                     rc =    6.081107
                 energy =   -0.282170
                kinetic =    0.913728
    potential(screened) =   -1.195898
       potential(ionic) =   -3.478408
atom: Total number of Sankey-type orbitals:  4

atm_pop: Valence configuration (for local Pseudopot. screening):
 3s( 2.00)                                                            
 3p( 2.00)                                                            
Vna: chval, zval:    4.00000   4.00000

Vna:  Cut-off radius for the neutral-atom potential:   6.081107

atom: _________________________________________________________________________

<basis_specs>
===============================================================================
H                    Z=   1    Mass=  1.0080        Charge= 0.17977+309
Lmxo=0 Lmxkb= 1    BasisType=split      Semic=F
L=0  Nsemic=0  Cnfigmx=1
          i=1  nzeta=1  polorb=0  (1s)
            splnorm:   0.15000    
               vcte:    40.000    
               rinn:  -0.90000    
               qcoe:    0.0000    
               qyuk:    0.0000    
               qwid:   0.10000E-01
                rcs:    0.0000    
            lambdas:    1.0000    
-------------------------------------------------------------------------------
L=0  Nkbl=1  erefs: 0.17977+309
L=1  Nkbl=1  erefs: 0.17977+309
===============================================================================
</basis_specs>

Using PAO.SplitTailNorm
atom: Called for H                     (Z =   1)
Maximum radius (at nrval) set to   50.00000 8518

read_vps: Pseudopotential generation method:
read_vps: ATM3      Troullier-Martins                       
Valence charge in pseudo generation:    1.00000

xc_check: Exchange-correlation functional:
xc_check: Ceperley-Alder
V l=0 = -2*Zval/r beyond r=  1.2384
V l=1 = -2*Zval/r beyond r=  1.2321
All V_l potentials equal beyond r=  1.2371
This should be close to max(r_c) in ps generation
All pots = -2*Zval/r beyond r=  1.2384
Using small-core scheme (local charge) for Vlocal

VLOCAL_FROM_CHLOCAL: 99.0% of the norm of Vloc inside     28.363 Ry
VLOCAL_FROM_CHLOCAL: 99.9% of the norm of Vloc inside     64.639 Ry
atom: Maximum radius for chlocal:    1.44620
atom: Maximum radius for r*vlocal+2*Zval:    1.31026

KBgen: Kleinman-Bylander projectors: 
GHOST: No ghost state for L =  0
   l= 0   rc=  1.364142   el= -0.467325   Ekb= -2.009475   kbcos= -0.336680
GHOST: No ghost state for L =  1
   l= 1   rc=  1.430269   el=  0.007562   Ekb= -0.503817   kbcos= -0.022554

KBgen: Total number of Kleinman-Bylander projectors:   4
atom: -------------------------------------------------------------------------

atom: SANKEY-TYPE ORBITALS:

SPLIT: Orbitals with angular momentum L= 0

SPLIT: Basis orbitals for state 1s

SPLIT: PAO cut-off radius determined from an
SPLIT: energy shift=  0.022050 Ry
Split based on tail norm

   izeta = 1
                 lambda =    1.000000
                     rc =    4.667809
                 energy =   -0.443242
                kinetic =    0.962817
    potential(screened) =   -1.406058
       potential(ionic) =   -1.945613
atom: Total number of Sankey-type orbitals:  1

atm_pop: Valence configuration (for local Pseudopot. screening):
 1s( 1.00)                                                            
Vna: chval, zval:    1.00000   1.00000

Vna:  Cut-off radius for the neutral-atom potential:   4.667809

atom: _________________________________________________________________________

prinput: Basis input 

PAO.BasisType split     

%block ChemicalSpeciesLabel
    1   14 Si                      # Species index, atomic number, species label
    2    1 H                       # Species index, atomic number, species label
%endblock ChemicalSpeciesLabel

%block PAO.Basis                 # Define Basis set
# WARNING: This information might be incomplete!
Si                    2                    # Species label, number of l-shells
 n=3   0   1                         # n, l, Nzeta 
   4.917   
   1.000   
 n=3   1   1                         # n, l, Nzeta 
   6.081   
   1.000   
H                     1                    # Species label, number of l-shells
 n=1   0   1                         # n, l, Nzeta 
   4.668   
   1.000   
%endblock PAO.Basis

prinput: ----------------------------------------------------------------------

Dumping basis to NetCDF file Si.ion.nc
Dumping basis to NetCDF file H.ion.nc
coor:   Atomic-coordinates input format  =     Cartesian coordinates
coor:                                          (in Angstroms)

siesta: Atomic coordinates (Bohr) and species
siesta:    -23.19614 -12.85378  -7.68854  1        1
siesta:    -23.16200 -18.03439  -2.55687  1        2
siesta:    -28.35161 -12.88772  -2.51949  1        3
siesta:    -25.73432 -15.46254  -0.04933  1        4
siesta:    -23.20508 -12.90620   2.56853  1        5
siesta:    -23.21287 -18.03059   7.79529  1        6
siesta:    -25.74665 -15.76221  10.60400  1        7
siesta:    -23.25590 -12.94085  12.94085  1        8
siesta:    -23.16200  -2.55687 -18.03439  1        9
siesta:    -23.19614  -7.68854 -12.85378  1       10
siesta:    -28.35161  -2.51949 -12.88772  1       11
siesta:    -25.82968  -5.14214 -10.31602  1       12
siesta:    -25.82968 -10.31602  -5.14214  1       13
siesta:    -30.93525  -5.16154  -5.16154  1       14
siesta:    -28.36541  -7.69856  -7.69856  1       15
siesta:    -23.24593  -2.56620  -7.73836  1       16
siesta:    -23.24593  -7.73836  -2.56620  1       17
siesta:    -28.42899  -2.57708  -2.57708  1       18
siesta:    -30.88066 -10.64285   0.31694  1       19
siesta:    -25.85436  -5.16006   0.00568  1       20
siesta:    -25.72213 -10.25197   5.09065  1       21
siesta:    -30.89011  -5.48376   5.48376  1       22
siesta:    -28.41040  -7.75713   2.60008  1       23
siesta:    -23.25633  -2.58915   2.58915  1       24
siesta:    -23.19121  -7.73658   7.73658  1       25
siesta:    -28.41040  -2.60008   7.75713  1       26
siesta:    -25.72213  -5.09065  10.25197  1       27
siesta:    -25.74665 -10.60400  15.76221  1       28
siesta:    -23.20508  -2.56853  12.90620  1       29
siesta:    -23.21287  -7.79529  18.03059  1       30
siesta:    -25.73432  -0.04933 -15.46254  1       31
siesta:    -23.21287   7.79529 -18.03059  1       32
siesta:    -23.20508   2.56853 -12.90620  1       33
siesta:    -30.88066   0.31694 -10.64285  1       34
siesta:    -25.72213   5.09065 -10.25197  1       35
siesta:    -25.85436   0.00568  -5.16006  1       36
siesta:    -30.89011   5.48376  -5.48376  1       37
siesta:    -28.41040   2.60008  -7.75713  1       38
siesta:    -23.19121   7.73658  -7.73658  1       39
siesta:    -23.25633   2.58915  -2.58915  1       40
siesta:    -28.41040   7.75713  -2.60008  1       41
siesta:    -30.95034   0.00000   0.00000  1       42
siesta:    -25.85436   5.16006  -0.00568  1       43
siesta:    -25.85436  -0.00568   5.16006  1       44
siesta:    -30.93525   5.16154   5.16154  1       45
siesta:    -28.42899   2.57708   2.57708  1       46
siesta:    -23.24593   7.73836   2.56620  1       47
siesta:    -23.24593   2.56620   7.73836  1       48
siesta:    -28.36541   7.69856   7.69856  1       49
siesta:    -30.88066  -0.31694  10.64285  1       50
siesta:    -25.82968   5.14214  10.31602  1       51
siesta:    -25.73432   0.04933  15.46254  1       52
siesta:    -28.35161   2.51949  12.88772  1       53
siesta:    -23.19614   7.68854  12.85378  1       54
siesta:    -23.16200   2.55687  18.03439  1       55
siesta:    -25.74665  10.60400 -15.76221  1       56
siesta:    -23.25590  12.94085 -12.94085  1       57
siesta:    -25.74665  15.76221 -10.60400  1       58
siesta:    -25.72213  10.25197  -5.09065  1       59
siesta:    -23.21287  18.03059  -7.79529  1       60
siesta:    -23.20508  12.90620  -2.56853  1       61
siesta:    -30.88066  10.64285  -0.31694  1       62
siesta:    -25.73432  15.46254   0.04933  1       63
siesta:    -25.82968  10.31602   5.14214  1       64
siesta:    -28.35161  12.88772   2.51949  1       65
siesta:    -23.16200  18.03439   2.55687  1       66
siesta:    -23.19614  12.85378   7.68854  1       67
siesta:    -12.85378 -23.19614  -7.68854  1       68
siesta:    -12.88772 -28.35161  -2.51949  1       69
siesta:    -18.03439 -23.16200  -2.55687  1       70
siesta:    -15.46254 -25.73432  -0.04933  1       71
siesta:    -12.90620 -23.20508   2.56853  1       72
siesta:    -18.03059 -23.21287   7.79529  1       73
siesta:    -15.76221 -25.74665  10.60400  1       74
siesta:    -12.94085 -23.25590  12.94085  1       75
siesta:    -12.85398 -12.85398 -18.02523  1       76
siesta:    -12.85398 -18.02523 -12.85398  1       77
siesta:    -18.02523 -12.85398 -12.85398  1       78
siesta:    -15.47089 -15.47089 -10.31906  1       79
siesta:    -15.47607 -20.63316  -5.16468  1       80
siesta:    -20.63316 -15.47607  -5.16468  1       81
siesta:    -18.01615 -18.01615  -7.71345  1       82
siesta:    -12.89668 -12.89668  -7.73836  1       83
siesta:    -12.90404 -18.05551  -2.57933  1       84
siesta:    -18.05551 -12.90404  -2.57933  1       85
siesta:    -20.60083 -20.60083  -0.02466  1       86
siesta:    -15.48841 -15.48841   0.02272  1       87
siesta:    -15.48179 -20.66246   5.18611  1       88
siesta:    -20.66246 -15.48179   5.18611  1       89
siesta:    -18.07080 -18.07080   2.61385  1       90
siesta:    -12.90483 -12.90483   2.59281  1       91
siesta:    -12.90126 -18.07504   7.75352  1       92
siesta:    -18.07504 -12.90126   7.75352  1       93
siesta:    -20.60352 -20.60352  10.26659  1       94
siesta:    -15.48338 -15.48338  10.32380  1       95
siesta:    -15.44908 -20.58395  15.44908  1       96
siesta:    -20.58395 -15.44908  15.44908  1       97
siesta:    -18.06183 -18.06183  12.89307  1       98
siesta:    -12.90118 -12.90118  12.90118  1       99
siesta:    -12.89307 -18.06183  18.06183  1      100
siesta:    -18.06183 -12.89307  18.06183  1      101
siesta:    -15.44908 -15.44908  20.58395  1      102
siesta:    -12.94085 -12.94085  23.25590  1      103
siesta:    -12.88772  -2.51949 -28.35161  1      104
siesta:    -12.85378  -7.68854 -23.19614  1      105
siesta:    -18.03439  -2.55687 -23.16200  1      106
siesta:    -15.47607  -5.16468 -20.63316  1      107
siesta:    -15.47089 -10.31906 -15.47089  1      108
siesta:    -20.63316  -5.16468 -15.47607  1      109
siesta:    -18.01615  -7.71345 -18.01615  1      110
siesta:    -12.90404  -2.57933 -18.05551  1      111
siesta:    -12.89668  -7.73836 -12.89668  1      112
siesta:    -18.05551  -2.57933 -12.90404  1      113
siesta:    -20.65119 -10.30916 -10.30916  1      114
siesta:    -15.47961  -5.15687 -10.31577  1      115
siesta:    -15.47961 -10.31577  -5.15687  1      116
siesta:    -20.66507  -5.15262  -5.15262  1      117
siesta:    -18.07163  -7.73268  -7.73268  1      118
siesta:    -12.90050  -2.57735  -7.73823  1      119
siesta:    -12.90050  -7.73823  -2.57735  1      120
siesta:    -18.08100  -2.57487  -2.57487  1      121
siesta:    -20.63434 -10.31923  -0.00222  1      122
siesta:    -15.48553  -5.15456  -0.00413  1      123
siesta:    -15.49203 -10.32209   5.16805  1      124
siesta:    -20.63259  -5.15543   5.15543  1      125
siesta:    -18.05729  -7.73671   2.57571  1      126
siesta:    -12.90349  -2.57886   2.57886  1      127
siesta:    -12.90617  -7.74332   7.74332  1      128
siesta:    -18.05729  -2.57571   7.73671  1      129
siesta:    -20.67803 -10.34756  10.34756  1      130
siesta:    -15.49203  -5.16805  10.32209  1      131
siesta:    -15.48338 -10.32380  15.48338  1      132
siesta:    -20.66246  -5.18611  15.48179  1      133
siesta:    -18.07504  -7.75352  12.90126  1      134
siesta:    -12.90483  -2.59281  12.90483  1      135
siesta:    -12.90126  -7.75352  18.07504  1      136
siesta:    -18.07080  -2.61385  18.07080  1      137
siesta:    -20.60352 -10.26659  20.60352  1      138
siesta:    -15.48179  -5.18611  20.66246  1      139
siesta:    -15.76221 -10.60400  25.74665  1      140
siesta:    -18.03059  -7.79529  23.21287  1      141
siesta:    -12.90620  -2.56853  23.20508  1      142
siesta:    -15.46254  -0.04933 -25.73432  1      143
siesta:    -12.90620   2.56853 -23.20508  1      144
siesta:    -18.03059   7.79529 -23.21287  1      145
siesta:    -20.60083  -0.02466 -20.60083  1      146
siesta:    -15.48179   5.18611 -20.66246  1      147
siesta:    -15.48841   0.02272 -15.48841  1      148
siesta:    -20.66246   5.18611 -15.48179  1      149
siesta:    -18.07080   2.61385 -18.07080  1      150
siesta:    -12.90126   7.75352 -18.07504  1      151
siesta:    -12.90483   2.59281 -12.90483  1      152
siesta:    -18.07504   7.75352 -12.90126  1      153
siesta:    -20.63434  -0.00222 -10.31923  1      154
siesta:    -15.49203   5.16805 -10.32209  1      155
siesta:    -15.48553  -0.00413  -5.15456  1      156
siesta:    -20.63259   5.15543  -5.15543  1      157
siesta:    -18.05729   2.57571  -7.73671  1      158
siesta:    -12.90617   7.74332  -7.74332  1      159
siesta:    -12.90349   2.57886  -2.57886  1      160
siesta:    -18.05729   7.73671  -2.57571  1      161
siesta:    -20.68021   0.00000  -0.00000  1      162
siesta:    -15.48553   5.15456   0.00413  1      163
siesta:    -15.48553   0.00413   5.15456  1      164
siesta:    -20.66507   5.15262   5.15262  1      165
siesta:    -18.08100   2.57487   2.57487  1      166
siesta:    -12.90050   7.73823   2.57735  1      167
siesta:    -12.90050   2.57735   7.73823  1      168
siesta:    -18.07163   7.73268   7.73268  1      169
siesta:    -20.63434   0.00222  10.31923  1      170
siesta:    -15.47961   5.15687  10.31577  1      171
siesta:    -15.48841  -0.02272  15.48841  1      172
siesta:    -20.63316   5.16468  15.47607  1      173
siesta:    -18.05551   2.57933  12.90404  1      174
siesta:    -12.89668   7.73836  12.89668  1      175
siesta:    -12.90404   2.57933  18.05551  1      176
siesta:    -18.01615   7.71345  18.01615  1      177
siesta:    -20.60083   0.02466  20.60083  1      178
siesta:    -15.47607   5.16468  20.63316  1      179
siesta:    -15.46254   0.04933  25.73432  1      180
siesta:    -18.03439   2.55687  23.16200  1      181
siesta:    -12.85378   7.68854  23.19614  1      182
siesta:    -12.88772   2.51949  28.35161  1      183
siesta:    -15.76221  10.60400 -25.74665  1      184
siesta:    -12.94085  12.94085 -23.25590  1      185
siesta:    -20.60352  10.26659 -20.60352  1      186
siesta:    -15.44908  15.44908 -20.58395  1      187
siesta:    -15.48338  10.32380 -15.48338  1      188
siesta:    -20.58395  15.44908 -15.44908  1      189
siesta:    -18.06183  12.89307 -18.06183  1      190
siesta:    -12.89307  18.06183 -18.06183  1      191
siesta:    -12.90118  12.90118 -12.90118  1      192
siesta:    -18.06183  18.06183 -12.89307  1      193
siesta:    -20.67803  10.34756 -10.34756  1      194
siesta:    -15.48338  15.48338 -10.32380  1      195
siesta:    -15.49203  10.32209  -5.16805  1      196
siesta:    -20.66246  15.48179  -5.18611  1      197
siesta:    -18.07504  12.90126  -7.75352  1      198
siesta:    -12.90126  18.07504  -7.75352  1      199
siesta:    -12.90483  12.90483  -2.59281  1      200
siesta:    -18.07080  18.07080  -2.61385  1      201
siesta:    -20.63434  10.31923   0.00222  1      202
siesta:    -15.48841  15.48841  -0.02272  1      203
siesta:    -15.47961  10.31577   5.15687  1      204
siesta:    -20.63316  15.47607   5.16468  1      205
siesta:    -18.05551  12.90404   2.57933  1      206
siesta:    -12.90404  18.05551   2.57933  1      207
siesta:    -12.89668  12.89668   7.73836  1      208
siesta:    -18.01615  18.01615   7.71345  1      209
siesta:    -20.65119  10.30916  10.30916  1      210
siesta:    -15.47089  15.47089  10.31906  1      211
siesta:    -15.47089  10.31906  15.47089  1      212
siesta:    -18.02523  12.85398  12.85398  1      213
siesta:    -12.85398  18.02523  12.85398  1      214
siesta:    -12.85398  12.85398  18.02523  1      215
siesta:    -15.44908  20.58395 -15.44908  1      216
siesta:    -12.94085  23.25590 -12.94085  1      217
siesta:    -20.60352  20.60352 -10.26659  1      218
siesta:    -15.76221  25.74665 -10.60400  1      219
siesta:    -15.48179  20.66246  -5.18611  1      220
siesta:    -18.03059  23.21287  -7.79529  1      221
siesta:    -12.90620  23.20508  -2.56853  1      222
siesta:    -20.60083  20.60083   0.02466  1      223
siesta:    -15.46254  25.73432   0.04933  1      224
siesta:    -15.47607  20.63316   5.16468  1      225
siesta:    -18.03439  23.16200   2.55687  1      226
siesta:    -12.88772  28.35161   2.51949  1      227
siesta:    -12.85378  23.19614   7.68854  1      228
siesta:     -2.55687 -23.16200 -18.03439  1      229
siesta:     -2.51949 -28.35161 -12.88772  1      230
siesta:     -7.68854 -23.19614 -12.85378  1      231
siesta:     -5.14214 -25.82968 -10.31602  1      232
siesta:     -5.16154 -30.93525  -5.16154  1      233
siesta:    -10.31602 -25.82968  -5.14214  1      234
siesta:     -7.69856 -28.36541  -7.69856  1      235
siesta:     -2.56620 -23.24593  -7.73836  1      236
siesta:     -2.57708 -28.42899  -2.57708  1      237
siesta:     -7.73836 -23.24593  -2.56620  1      238
siesta:    -10.64285 -30.88066   0.31694  1      239
siesta:     -5.16006 -25.85436   0.00568  1      240
siesta:     -5.48376 -30.89011   5.48376  1      241
siesta:    -10.25197 -25.72213   5.09065  1      242
siesta:     -7.75713 -28.41040   2.60008  1      243
siesta:     -2.58915 -23.25633   2.58915  1      244
siesta:     -2.60008 -28.41040   7.75713  1      245
siesta:     -7.73658 -23.19121   7.73658  1      246
siesta:     -5.09065 -25.72213  10.25197  1      247
siesta:    -10.60400 -25.74665  15.76221  1      248
siesta:     -2.56853 -23.20508  12.90620  1      249
siesta:     -7.79529 -23.21287  18.03059  1      250
siesta:     -2.51949 -12.88772 -28.35161  1      251
siesta:     -2.55687 -18.03439 -23.16200  1      252
siesta:     -7.68854 -12.85378 -23.19614  1      253
siesta:     -5.16468 -15.47607 -20.63316  1      254
siesta:     -5.16468 -20.63316 -15.47607  1      255
siesta:    -10.31906 -15.47089 -15.47089  1      256
siesta:     -7.71345 -18.01615 -18.01615  1      257
siesta:     -2.57933 -12.90404 -18.05551  1      258
siesta:     -2.57933 -18.05551 -12.90404  1      259
siesta:     -7.73836 -12.89668 -12.89668  1      260
siesta:    -10.30916 -20.65119 -10.30916  1      261
siesta:     -5.15687 -15.47961 -10.31577  1      262
siesta:     -5.15262 -20.66507  -5.15262  1      263
siesta:    -10.31577 -15.47961  -5.15687  1      264
siesta:     -7.73268 -18.07163  -7.73268  1      265
siesta:     -2.57735 -12.90050  -7.73823  1      266
siesta:     -2.57487 -18.08100  -2.57487  1      267
siesta:     -7.73823 -12.90050  -2.57735  1      268
siesta:    -10.31923 -20.63434  -0.00222  1      269
siesta:     -5.15456 -15.48553  -0.00413  1      270
siesta:     -5.15543 -20.63259   5.15543  1      271
siesta:    -10.32209 -15.49203   5.16805  1      272
siesta:     -7.73671 -18.05729   2.57571  1      273
siesta:     -2.57886 -12.90349   2.57886  1      274
siesta:     -2.57571 -18.05729   7.73671  1      275
siesta:     -7.74332 -12.90617   7.74332  1      276
siesta:    -10.34756 -20.67803  10.34756  1      277
siesta:     -5.16805 -15.49203  10.32209  1      278
siesta:     -5.18611 -20.66246  15.48179  1      279
siesta:    -10.32380 -15.48338  15.48338  1      280
siesta:     -7.75352 -18.07504  12.90126  1      281
siesta:     -2.59281 -12.90483  12.90483  1      282
siesta:     -2.61385 -18.07080  18.07080  1      283
siesta:     -7.75352 -12.90126  18.07504  1      284
siesta:    -10.26659 -20.60352  20.60352  1      285
siesta:     -5.18611 -15.48179  20.66246  1      286
siesta:    -10.60400 -15.76221  25.74665  1      287
siesta:     -7.79529 -18.03059  23.21287  1      288
siesta:     -2.56853 -12.90620  23.20508  1      289
siesta:     -5.16154  -5.16154 -30.93525  1      290
siesta:     -5.14214 -10.31602 -25.82968  1      291
siesta:    -10.31602  -5.14214 -25.82968  1      292
siesta:     -7.69856  -7.69856 -28.36541  1      293
siesta:     -2.57708  -2.57708 -28.42899  1      294
siesta:     -2.56620  -7.73836 -23.24593  1      295
siesta:     -7.73836  -2.56620 -23.24593  1      296
siesta:    -10.30916 -10.30916 -20.65119  1      297
siesta:     -5.15262  -5.15262 -20.66507  1      298
siesta:     -5.15687 -10.31577 -15.47961  1      299
siesta:    -10.31577  -5.15687 -15.47961  1      300
siesta:     -7.73268  -7.73268 -18.07163  1      301
siesta:     -2.57487  -2.57487 -18.08100  1      302
siesta:     -2.57735  -7.73823 -12.90050  1      303
siesta:     -7.73823  -2.57735 -12.90050  1      304
siesta:    -10.31500 -10.31500 -10.31500  1      305
siesta:     -5.15881  -5.15881 -10.31988  1      306
siesta:     -5.15881 -10.31988  -5.15881  1      307
siesta:    -10.31988  -5.15881  -5.15881  1      308
siesta:     -7.73747  -7.73747  -7.73747  1      309
siesta:     -2.57947  -2.57947  -7.73979  1      310
siesta:     -2.57947  -7.73979  -2.57947  1      311
siesta:     -7.73979  -2.57947  -2.57947  1      312
siesta:    -10.32497 -10.32497   0.00605  1      313
siesta:     -5.16178  -5.16178   0.00133  1      314
siesta:     -5.16210 -10.32570   5.16210  1      315
siesta:    -10.32570  -5.16210   5.16210  1      316
siesta:     -7.74269  -7.74269   2.58247  1      317
siesta:     -2.58110  -2.58110   2.58110  1      318
siesta:     -2.58247  -7.74269   7.74269  1      319
siesta:     -7.74269  -2.58247   7.74269  1      320
siesta:    -10.32238 -10.32238  10.32238  1      321
siesta:     -5.16210  -5.16210  10.32570  1      322
siesta:     -5.16805 -10.32209  15.49203  1      323
siesta:    -10.32209  -5.16805  15.49203  1      324
siesta:     -7.74332  -7.74332  12.90617  1      325
siesta:     -2.57886  -2.57886  12.90349  1      326
siesta:     -2.57571  -7.73671  18.05729  1      327
siesta:     -7.73671  -2.57571  18.05729  1      328
siesta:    -10.34756 -10.34756  20.67803  1      329
siesta:     -5.15543  -5.15543  20.63259  1      330
siesta:     -5.09065 -10.25197  25.72213  1      331
siesta:    -10.25197  -5.09065  25.72213  1      332
siesta:     -7.73658  -7.73658  23.19121  1      333
siesta:     -2.58915  -2.58915  23.25633  1      334
siesta:     -2.60008  -7.75713  28.41040  1      335
siesta:     -7.75713  -2.60008  28.41040  1      336
siesta:     -5.48376  -5.48376  30.89011  1      337
siesta:    -10.64285   0.31694 -30.88066  1      338
siesta:     -5.48376   5.48376 -30.89011  1      339
siesta:     -5.16006   0.00568 -25.85436  1      340
siesta:    -10.25197   5.09065 -25.72213  1      341
siesta:     -7.75713   2.60008 -28.41040  1      342
siesta:     -2.60008   7.75713 -28.41040  1      343
siesta:     -2.58915   2.58915 -23.25633  1      344
siesta:     -7.73658   7.73658 -23.19121  1      345
siesta:    -10.31923  -0.00222 -20.63434  1      346
siesta:     -5.15543   5.15543 -20.63259  1      347
siesta:     -5.15456  -0.00413 -15.48553  1      348
siesta:    -10.32209   5.16805 -15.49203  1      349
siesta:     -7.73671   2.57571 -18.05729  1      350
siesta:     -2.57571   7.73671 -18.05729  1      351
siesta:     -2.57886   2.57886 -12.90349  1      352
siesta:     -7.74332   7.74332 -12.90617  1      353
siesta:    -10.32497   0.00605 -10.32497  1      354
siesta:     -5.16210   5.16210 -10.32570  1      355
siesta:     -5.16178   0.00133  -5.16178  1      356
siesta:    -10.32570   5.16210  -5.16210  1      357
siesta:     -7.74269   2.58247  -7.74269  1      358
siesta:     -2.58247   7.74269  -7.74269  1      359
siesta:     -2.58110   2.58110  -2.58110  1      360
siesta:     -7.74269   7.74269  -2.58247  1      361
siesta:    -10.32077  -0.00000   0.00000  1      362
siesta:     -5.16178   5.16178  -0.00133  1      363
siesta:     -5.16178  -0.00133   5.16178  1      364
siesta:    -10.31988   5.15881   5.15881  1      365
siesta:     -7.73979   2.57947   2.57947  1      366
siesta:     -2.57947   7.73979   2.57947  1      367
siesta:     -2.57947   2.57947   7.73979  1      368
siesta:     -7.73747   7.73747   7.73747  1      369
siesta:    -10.32497  -0.00605  10.32497  1      370
siesta:     -5.15881   5.15881  10.31988  1      371
siesta:     -5.15456   0.00413  15.48553  1      372
siesta:    -10.31577   5.15687  15.47961  1      373
siesta:     -7.73823   2.57735  12.90050  1      374
siesta:     -2.57735   7.73823  12.90050  1      375
siesta:     -2.57487   2.57487  18.08100  1      376
siesta:     -7.73268   7.73268  18.07163  1      377
siesta:    -10.31923   0.00222  20.63434  1      378
siesta:     -5.15262   5.15262  20.66507  1      379
siesta:     -5.16006  -0.00568  25.85436  1      380
siesta:    -10.31602   5.14214  25.82968  1      381
siesta:     -7.73836   2.56620  23.24593  1      382
siesta:     -2.56620   7.73836  23.24593  1      383
siesta:     -2.57708   2.57708  28.42899  1      384
siesta:     -7.69856   7.69856  28.36541  1      385
siesta:    -10.64285  -0.31694  30.88066  1      386
siesta:     -5.16154   5.16154  30.93525  1      387
siesta:     -5.09065  10.25197 -25.72213  1      388
siesta:    -10.60400  15.76221 -25.74665  1      389
siesta:     -2.56853  12.90620 -23.20508  1      390
siesta:     -7.79529  18.03059 -23.21287  1      391
siesta:    -10.34756  10.34756 -20.67803  1      392
siesta:     -5.18611  15.48179 -20.66246  1      393
siesta:     -5.16805  10.32209 -15.49203  1      394
siesta:    -10.32380  15.48338 -15.48338  1      395
siesta:     -7.75352  12.90126 -18.07504  1      396
siesta:     -2.61385  18.07080 -18.07080  1      397
siesta:     -2.59281  12.90483 -12.90483  1      398
siesta:     -7.75352  18.07504 -12.90126  1      399
siesta:    -10.32238  10.32238 -10.32238  1      400
siesta:     -5.16805  15.49203 -10.32209  1      401
siesta:     -5.16210  10.32570  -5.16210  1      402
siesta:    -10.32209  15.49203  -5.16805  1      403
siesta:     -7.74332  12.90617  -7.74332  1      404
siesta:     -2.57571  18.05729  -7.73671  1      405
siesta:     -2.57886  12.90349  -2.57886  1      406
siesta:     -7.73671  18.05729  -2.57571  1      407
siesta:    -10.32497  10.32497  -0.00605  1      408
siesta:     -5.15456  15.48553   0.00413  1      409
siesta:     -5.15881  10.31988   5.15881  1      410
siesta:    -10.31577  15.47961   5.15687  1      411
siesta:     -7.73823  12.90050   2.57735  1      412
siesta:     -2.57487  18.08100   2.57487  1      413
siesta:     -2.57735  12.90050   7.73823  1      414
siesta:     -7.73268  18.07163   7.73268  1      415
siesta:    -10.31500  10.31500  10.31500  1      416
siesta:     -5.15687  15.47961  10.31577  1      417
siesta:     -5.15687  10.31577  15.47961  1      418
siesta:    -10.31906  15.47089  15.47089  1      419
siesta:     -7.73836  12.89668  12.89668  1      420
siesta:     -2.57933  18.05551  12.90404  1      421
siesta:     -2.57933  12.90404  18.05551  1      422
siesta:     -7.71345  18.01615  18.01615  1      423
siesta:    -10.30916  10.30916  20.65119  1      424
siesta:     -5.16468  15.47607  20.63316  1      425
siesta:     -5.14214  10.31602  25.82968  1      426
siesta:     -7.68854  12.85378  23.19614  1      427
siesta:     -2.55687  18.03439  23.16200  1      428
siesta:     -2.51949  12.88772  28.35161  1      429
siesta:    -10.26659  20.60352 -20.60352  1      430
siesta:     -5.18611  20.66246 -15.48179  1      431
siesta:    -10.60400  25.74665 -15.76221  1      432
siesta:     -7.79529  23.21287 -18.03059  1      433
siesta:     -2.56853  23.20508 -12.90620  1      434
siesta:    -10.34756  20.67803 -10.34756  1      435
siesta:     -5.09065  25.72213 -10.25197  1      436
siesta:     -5.15543  20.63259  -5.15543  1      437
siesta:    -10.25197  25.72213  -5.09065  1      438
siesta:     -7.73658  23.19121  -7.73658  1      439
siesta:     -2.60008  28.41040  -7.75713  1      440
siesta:     -2.58915  23.25633  -2.58915  1      441
siesta:     -7.75713  28.41040  -2.60008  1      442
siesta:    -10.31923  20.63434   0.00222  1      443
siesta:     -5.16006  25.85436  -0.00568  1      444
siesta:     -5.15262  20.66507   5.15262  1      445
siesta:    -10.31602  25.82968   5.14214  1      446
siesta:     -7.73836  23.24593   2.56620  1      447
siesta:     -2.57708  28.42899   2.57708  1      448
siesta:     -2.56620  23.24593   7.73836  1      449
siesta:     -7.69856  28.36541   7.69856  1      450
siesta:    -10.30916  20.65119  10.30916  1      451
siesta:     -5.14214  25.82968  10.31602  1      452
siesta:     -5.16468  20.63316  15.47607  1      453
siesta:     -7.68854  23.19614  12.85378  1      454
siesta:     -2.51949  28.35161  12.88772  1      455
siesta:     -2.55687  23.16200  18.03439  1      456
siesta:     -5.48376  30.89011  -5.48376  1      457
siesta:    -10.64285  30.88066  -0.31694  1      458
siesta:     -5.16154  30.93525   5.16154  1      459
siesta:     -0.04933 -25.73432 -15.46254  1      460
siesta:      7.79529 -23.21287 -18.03059  1      461
siesta:      2.56853 -23.20508 -12.90620  1      462
siesta:      0.31694 -30.88066 -10.64285  1      463
siesta:      5.09065 -25.72213 -10.25197  1      464
siesta:      5.48376 -30.89011  -5.48376  1      465
siesta:      0.00568 -25.85436  -5.16006  1      466
siesta:      2.60008 -28.41040  -7.75713  1      467
siesta:      7.73658 -23.19121  -7.73658  1      468
siesta:      7.75713 -28.41040  -2.60008  1      469
siesta:      2.58915 -23.25633  -2.58915  1      470
siesta:     -0.00000 -30.95034  -0.00000  1      471
siesta:      5.16006 -25.85436  -0.00568  1      472
siesta:      5.16154 -30.93525   5.16154  1      473
siesta:     -0.00568 -25.85436   5.16006  1      474
siesta:      2.57708 -28.42899   2.57708  1      475
siesta:      7.73836 -23.24593   2.56620  1      476
siesta:      7.69856 -28.36541   7.69856  1      477
siesta:      2.56620 -23.24593   7.73836  1      478
siesta:     -0.31694 -30.88066  10.64285  1      479
siesta:      5.14214 -25.82968  10.31602  1      480
siesta:      0.04933 -25.73432  15.46254  1      481
siesta:      2.51949 -28.35161  12.88772  1      482
siesta:      7.68854 -23.19614  12.85378  1      483
siesta:      2.55687 -23.16200  18.03439  1      484
siesta:     -0.04933 -15.46254 -25.73432  1      485
siesta:      7.79529 -18.03059 -23.21287  1      486
siesta:      2.56853 -12.90620 -23.20508  1      487
siesta:     -0.02466 -20.60083 -20.60083  1      488
siesta:      5.18611 -15.48179 -20.66246  1      489
siesta:      5.18611 -20.66246 -15.48179  1      490
siesta:      0.02272 -15.48841 -15.48841  1      491
siesta:      2.61385 -18.07080 -18.07080  1      492
siesta:      7.75352 -12.90126 -18.07504  1      493
siesta:      7.75352 -18.07504 -12.90126  1      494
siesta:      2.59281 -12.90483 -12.90483  1      495
siesta:     -0.00222 -20.63434 -10.31923  1      496
siesta:      5.16805 -15.49203 -10.32209  1      497
siesta:      5.15543 -20.63259  -5.15543  1      498
siesta:     -0.00413 -15.48553  -5.15456  1      499
siesta:      2.57571 -18.05729  -7.73671  1      500
siesta:      7.74332 -12.90617  -7.74332  1      501
siesta:      7.73671 -18.05729  -2.57571  1      502
siesta:      2.57886 -12.90349  -2.57886  1      503
siesta:      0.00000 -20.68021   0.00000  1      504
siesta:      5.15456 -15.48553   0.00413  1      505
siesta:      5.15262 -20.66507   5.15262  1      506
siesta:      0.00413 -15.48553   5.15456  1      507
siesta:      2.57487 -18.08100   2.57487  1      508
siesta:      7.73823 -12.90050   2.57735  1      509
siesta:      7.73268 -18.07163   7.73268  1      510
siesta:      2.57735 -12.90050   7.73823  1      511
siesta:      0.00222 -20.63434  10.31923  1      512
siesta:      5.15687 -15.47961  10.31577  1      513
siesta:      5.16468 -20.63316  15.47607  1      514
siesta:     -0.02272 -15.48841  15.48841  1      515
siesta:      2.57933 -18.05551  12.90404  1      516
siesta:      7.73836 -12.89668  12.89668  1      517
siesta:      7.71345 -18.01615  18.01615  1      518
siesta:      2.57933 -12.90404  18.05551  1      519
siesta:      0.02466 -20.60083  20.60083  1      520
siesta:      5.16468 -15.47607  20.63316  1      521
siesta:      0.04933 -15.46254  25.73432  1      522
siesta:      2.55687 -18.03439  23.16200  1      523
siesta:      7.68854 -12.85378  23.19614  1      524
siesta:      2.51949 -12.88772  28.35161  1      525
siesta:      0.31694 -10.64285 -30.88066  1      526
siesta:      5.48376  -5.48376 -30.89011  1      527
siesta:      5.09065 -10.25197 -25.72213  1      528
siesta:      0.00568  -5.16006 -25.85436  1      529
siesta:      2.60008  -7.75713 -28.41040  1      530
siesta:      7.75713  -2.60008 -28.41040  1      531
siesta:      7.73658  -7.73658 -23.19121  1      532
siesta:      2.58915  -2.58915 -23.25633  1      533
siesta:     -0.00222 -10.31923 -20.63434  1      534
siesta:      5.15543  -5.15543 -20.63259  1      535
siesta:      5.16805 -10.32209 -15.49203  1      536
siesta:     -0.00413  -5.15456 -15.48553  1      537
siesta:      2.57571  -7.73671 -18.05729  1      538
siesta:      7.73671  -2.57571 -18.05729  1      539
siesta:      7.74332  -7.74332 -12.90617  1      540
siesta:      2.57886  -2.57886 -12.90349  1      541
siesta:      0.00605 -10.32497 -10.32497  1      542
siesta:      5.16210  -5.16210 -10.32570  1      543
siesta:      5.16210 -10.32570  -5.16210  1      544
siesta:      0.00133  -5.16178  -5.16178  1      545
siesta:      2.58247  -7.74269  -7.74269  1      546
siesta:      7.74269  -2.58247  -7.74269  1      547
siesta:      7.74269  -7.74269  -2.58247  1      548
siesta:      2.58110  -2.58110  -2.58110  1      549
siesta:     -0.00000 -10.32077   0.00000  1      550
siesta:      5.16178  -5.16178  -0.00133  1      551
siesta:      5.15881 -10.31988   5.15881  1      552
siesta:     -0.00133  -5.16178   5.16178  1      553
siesta:      2.57947  -7.73979   2.57947  1      554
siesta:      7.73979  -2.57947   2.57947  1      555
siesta:      7.73747  -7.73747   7.73747  1      556
siesta:      2.57947  -2.57947   7.73979  1      557
siesta:     -0.00605 -10.32497  10.32497  1      558
siesta:      5.15881  -5.15881  10.31988  1      559
siesta:      5.15687 -10.31577  15.47961  1      560
siesta:      0.00413  -5.15456  15.48553  1      561
siesta:      2.57735  -7.73823  12.90050  1      562
siesta:      7.73823  -2.57735  12.90050  1      563
siesta:      7.73268  -7.73268  18.07163  1      564
siesta:      2.57487  -2.57487  18.08100  1      565
siesta:      0.00222 -10.31923  20.63434  1      566
siesta:      5.15262  -5.15262  20.66507  1      567
siesta:      5.14214 -10.31602  25.82968  1      568
siesta:     -0.00568  -5.16006  25.85436  1      569
siesta:      2.56620  -7.73836  23.24593  1      570
siesta:      7.73836  -2.56620  23.24593  1      571
siesta:      7.69856  -7.69856  28.36541  1      572
siesta:      2.57708  -2.57708  28.42899  1      573
siesta:     -0.31694 -10.64285  30.88066  1      574
siesta:      5.16154  -5.16154  30.93525  1      575
siesta:     -0.00000  -0.00000 -30.95034  1      576
siesta:      5.16154   5.16154 -30.93525  1      577
siesta:      5.16006  -0.00568 -25.85436  1      578
siesta:     -0.00568   5.16006 -25.85436  1      579
siesta:      2.57708   2.57708 -28.42899  1      580
siesta:      7.69856   7.69856 -28.36541  1      581
siesta:      7.73836   2.56620 -23.24593  1      582
siesta:      2.56620   7.73836 -23.24593  1      583
siesta:      0.00000   0.00000 -20.68021  1      584
siesta:      5.15262   5.15262 -20.66507  1      585
siesta:      5.15456   0.00413 -15.48553  1      586
siesta:      0.00413   5.15456 -15.48553  1      587
siesta:      2.57487   2.57487 -18.08100  1      588
siesta:      7.73268   7.73268 -18.07163  1      589
siesta:      7.73823   2.57735 -12.90050  1      590
siesta:      2.57735   7.73823 -12.90050  1      591
siesta:     -0.00000   0.00000 -10.32077  1      592
siesta:      5.15881   5.15881 -10.31988  1      593
siesta:      5.16178  -0.00133  -5.16178  1      594
siesta:     -0.00133   5.16178  -5.16178  1      595
siesta:      2.57947   2.57947  -7.73979  1      596
siesta:      7.73747   7.73747  -7.73747  1      597
siesta:      7.73979   2.57947  -2.57947  1      598
siesta:      2.57947   7.73979  -2.57947  1      599
siesta:     -0.00000   0.00000  -0.00000  1      600
siesta:      5.16178   5.16178   0.00133  1      601
siesta:      5.16178   0.00133   5.16178  1      602
siesta:      0.00133   5.16178   5.16178  1      603
siesta:      2.58110   2.58110   2.58110  1      604
siesta:      7.74269   7.74269   2.58247  1      605
siesta:      7.74269   2.58247   7.74269  1      606
siesta:      2.58247   7.74269   7.74269  1      607
siesta:     -0.00000  -0.00000  10.32077  1      608
siesta:      5.16210   5.16210  10.32570  1      609
siesta:      5.15456  -0.00413  15.48553  1      610
siesta:     -0.00413   5.15456  15.48553  1      611
siesta:      2.57886   2.57886  12.90349  1      612
siesta:      7.74332   7.74332  12.90617  1      613
siesta:      7.73671   2.57571  18.05729  1      614
siesta:      2.57571   7.73671  18.05729  1      615
siesta:     -0.00000  -0.00000  20.68021  1      616
siesta:      5.15543   5.15543  20.63259  1      617
siesta:      5.16006   0.00568  25.85436  1      618
siesta:      0.00568   5.16006  25.85436  1      619
siesta:      2.58915   2.58915  23.25633  1      620
siesta:      7.73658   7.73658  23.19121  1      621
siesta:      7.75713   2.60008  28.41040  1      622
siesta:      2.60008   7.75713  28.41040  1      623
siesta:     -0.00000  -0.00000  30.95034  1      624
siesta:      5.48376   5.48376  30.89011  1      625
siesta:     -0.31694  10.64285 -30.88066  1      626
siesta:      5.14214  10.31602 -25.82968  1      627
siesta:      0.04933  15.46254 -25.73432  1      628
siesta:      2.51949  12.88772 -28.35161  1      629
siesta:      7.68854  12.85378 -23.19614  1      630
siesta:      2.55687  18.03439 -23.16200  1      631
siesta:      0.00222  10.31923 -20.63434  1      632
siesta:      5.16468  15.47607 -20.63316  1      633
siesta:      5.15687  10.31577 -15.47961  1      634
siesta:     -0.02272  15.48841 -15.48841  1      635
siesta:      2.57933  12.90404 -18.05551  1      636
siesta:      7.71345  18.01615 -18.01615  1      637
siesta:      7.73836  12.89668 -12.89668  1      638
siesta:      2.57933  18.05551 -12.90404  1      639
siesta:     -0.00605  10.32497 -10.32497  1      640
siesta:      5.15687  15.47961 -10.31577  1      641
siesta:      5.15881  10.31988  -5.15881  1      642
siesta:      0.00413  15.48553  -5.15456  1      643
siesta:      2.57735  12.90050  -7.73823  1      644
siesta:      7.73268  18.07163  -7.73268  1      645
siesta:      7.73823  12.90050  -2.57735  1      646
siesta:      2.57487  18.08100  -2.57487  1      647
siesta:     -0.00000  10.32077   0.00000  1      648
siesta:      5.15456  15.48553  -0.00413  1      649
siesta:      5.16210  10.32570   5.16210  1      650
siesta:     -0.00413  15.48553   5.15456  1      651
siesta:      2.57886  12.90349   2.57886  1      652
siesta:      7.73671  18.05729   2.57571  1      653
siesta:      7.74332  12.90617   7.74332  1      654
siesta:      2.57571  18.05729   7.73671  1      655
siesta:      0.00605  10.32497  10.32497  1      656
siesta:      5.16805  15.49203  10.32209  1      657
siesta:      5.16805  10.32209  15.49203  1      658
siesta:      0.02272  15.48841  15.48841  1      659
siesta:      2.59281  12.90483  12.90483  1      660
siesta:      7.75352  18.07504  12.90126  1      661
siesta:      7.75352  12.90126  18.07504  1      662
siesta:      2.61385  18.07080  18.07080  1      663
siesta:     -0.00222  10.31923  20.63434  1      664
siesta:      5.18611  15.48179  20.66246  1      665
siesta:      5.09065  10.25197  25.72213  1      666
siesta:     -0.04933  15.46254  25.73432  1      667
siesta:      2.56853  12.90620  23.20508  1      668
siesta:      7.79529  18.03059  23.21287  1      669
siesta:      0.31694  10.64285  30.88066  1      670
siesta:      0.02466  20.60083 -20.60083  1      671
siesta:      5.16468  20.63316 -15.47607  1      672
siesta:      0.04933  25.73432 -15.46254  1      673
siesta:      2.55687  23.16200 -18.03439  1      674
siesta:      7.68854  23.19614 -12.85378  1      675
siesta:      2.51949  28.35161 -12.88772  1      676
siesta:      0.00222  20.63434 -10.31923  1      677
siesta:      5.14214  25.82968 -10.31602  1      678
siesta:      5.15262  20.66507  -5.15262  1      679
siesta:     -0.00568  25.85436  -5.16006  1      680
siesta:      2.56620  23.24593  -7.73836  1      681
siesta:      7.69856  28.36541  -7.69856  1      682
siesta:      7.73836  23.24593  -2.56620  1      683
siesta:      2.57708  28.42899  -2.57708  1      684
siesta:     -0.00000  20.68021   0.00000  1      685
siesta:      5.16006  25.85436   0.00568  1      686
siesta:      5.15543  20.63259   5.15543  1      687
siesta:      0.00568  25.85436   5.16006  1      688
siesta:      2.58915  23.25633   2.58915  1      689
siesta:      7.75713  28.41040   2.60008  1      690
siesta:      7.73658  23.19121   7.73658  1      691
siesta:      2.60008  28.41040   7.75713  1      692
siesta:     -0.00222  20.63434  10.31923  1      693
siesta:      5.09065  25.72213  10.25197  1      694
siesta:      5.18611  20.66246  15.48179  1      695
siesta:     -0.04933  25.73432  15.46254  1      696
siesta:      2.56853  23.20508  12.90620  1      697
siesta:      7.79529  23.21287  18.03059  1      698
siesta:     -0.02466  20.60083  20.60083  1      699
siesta:     -0.31694  30.88066 -10.64285  1      700
siesta:      5.16154  30.93525  -5.16154  1      701
siesta:      0.00000  30.95034  -0.00000  1      702
siesta:      5.48376  30.89011   5.48376  1      703
siesta:      0.31694  30.88066  10.64285  1      704
siesta:     10.60400 -25.74665 -15.76221  1      705
siesta:     12.94085 -23.25590 -12.94085  1      706
siesta:     15.76221 -25.74665 -10.60400  1      707
siesta:     10.25197 -25.72213  -5.09065  1      708
siesta:     18.03059 -23.21287  -7.79529  1      709
siesta:     12.90620 -23.20508  -2.56853  1      710
siesta:     10.64285 -30.88066  -0.31694  1      711
siesta:     15.46254 -25.73432   0.04933  1      712
siesta:     10.31602 -25.82968   5.14214  1      713
siesta:     12.88772 -28.35161   2.51949  1      714
siesta:     18.03439 -23.16200   2.55687  1      715
siesta:     12.85378 -23.19614   7.68854  1      716
siesta:     10.60400 -15.76221 -25.74665  1      717
siesta:     12.94085 -12.94085 -23.25590  1      718
siesta:     10.26659 -20.60352 -20.60352  1      719
siesta:     15.44908 -15.44908 -20.58395  1      720
siesta:     15.44908 -20.58395 -15.44908  1      721
siesta:     10.32380 -15.48338 -15.48338  1      722
siesta:     12.89307 -18.06183 -18.06183  1      723
siesta:     18.06183 -12.89307 -18.06183  1      724
siesta:     18.06183 -18.06183 -12.89307  1      725
siesta:     12.90118 -12.90118 -12.90118  1      726
siesta:     10.34756 -20.67803 -10.34756  1      727
siesta:     15.48338 -15.48338 -10.32380  1      728
siesta:     15.48179 -20.66246  -5.18611  1      729
siesta:     10.32209 -15.49203  -5.16805  1      730
siesta:     12.90126 -18.07504  -7.75352  1      731
siesta:     18.07504 -12.90126  -7.75352  1      732
siesta:     18.07080 -18.07080  -2.61385  1      733
siesta:     12.90483 -12.90483  -2.59281  1      734
siesta:     10.31923 -20.63434   0.00222  1      735
siesta:     15.48841 -15.48841  -0.02272  1      736
siesta:     15.47607 -20.63316   5.16468  1      737
siesta:     10.31577 -15.47961   5.15687  1      738
siesta:     12.90404 -18.05551   2.57933  1      739
siesta:     18.05551 -12.90404   2.57933  1      740
siesta:     18.01615 -18.01615   7.71345  1      741
siesta:     12.89668 -12.89668   7.73836  1      742
siesta:     10.30916 -20.65119  10.30916  1      743
siesta:     15.47089 -15.47089  10.31906  1      744
siesta:     10.31906 -15.47089  15.47089  1      745
siesta:     12.85398 -18.02523  12.85398  1      746
siesta:     18.02523 -12.85398  12.85398  1      747
siesta:     12.85398 -12.85398  18.02523  1      748
siesta:     15.76221 -10.60400 -25.74665  1      749
siesta:     10.25197  -5.09065 -25.72213  1      750
siesta:     18.03059  -7.79529 -23.21287  1      751
siesta:     12.90620  -2.56853 -23.20508  1      752
siesta:     10.34756 -10.34756 -20.67803  1      753
siesta:     15.48179  -5.18611 -20.66246  1      754
siesta:     15.48338 -10.32380 -15.48338  1      755
siesta:     10.32209  -5.16805 -15.49203  1      756
siesta:     12.90126  -7.75352 -18.07504  1      757
siesta:     18.07080  -2.61385 -18.07080  1      758
siesta:     18.07504  -7.75352 -12.90126  1      759
siesta:     12.90483  -2.59281 -12.90483  1      760
siesta:     10.32238 -10.32238 -10.32238  1      761
siesta:     15.49203  -5.16805 -10.32209  1      762
siesta:     15.49203 -10.32209  -5.16805  1      763
siesta:     10.32570  -5.16210  -5.16210  1      764
siesta:     12.90617  -7.74332  -7.74332  1      765
siesta:     18.05729  -2.57571  -7.73671  1      766
siesta:     18.05729  -7.73671  -2.57571  1      767
siesta:     12.90349  -2.57886  -2.57886  1      768
siesta:     10.32497 -10.32497  -0.00605  1      769
siesta:     15.48553  -5.15456   0.00413  1      770
siesta:     15.47961 -10.31577   5.15687  1      771
siesta:     10.31988  -5.15881   5.15881  1      772
siesta:     12.90050  -7.73823   2.57735  1      773
siesta:     18.08100  -2.57487   2.57487  1      774
siesta:     18.07163  -7.73268   7.73268  1      775
siesta:     12.90050  -2.57735   7.73823  1      776
siesta:     10.31500 -10.31500  10.31500  1      777
siesta:     15.47961  -5.15687  10.31577  1      778
siesta:     15.47089 -10.31906  15.47089  1      779
siesta:     10.31577  -5.15687  15.47961  1      780
siesta:     12.89668  -7.73836  12.89668  1      781
siesta:     18.05551  -2.57933  12.90404  1      782
siesta:     18.01615  -7.71345  18.01615  1      783
siesta:     12.90404  -2.57933  18.05551  1      784
siesta:     10.30916 -10.30916  20.65119  1      785
siesta:     15.47607  -5.16468  20.63316  1      786
siesta:     10.31602  -5.14214  25.82968  1      787
siesta:     12.85378  -7.68854  23.19614  1      788
siesta:     18.03439  -2.55687  23.16200  1      789
siesta:     12.88772  -2.51949  28.35161  1      790
siesta:     10.64285  -0.31694 -30.88066  1      791
siesta:     15.46254   0.04933 -25.73432  1      792
siesta:     10.31602   5.14214 -25.82968  1      793
siesta:     12.88772   2.51949 -28.35161  1      794
siesta:     18.03439   2.55687 -23.16200  1      795
siesta:     12.85378   7.68854 -23.19614  1      796
siesta:     10.31923   0.00222 -20.63434  1      797
siesta:     15.47607   5.16468 -20.63316  1      798
siesta:     15.48841  -0.02272 -15.48841  1      799
siesta:     10.31577   5.15687 -15.47961  1      800
siesta:     12.90404   2.57933 -18.05551  1      801
siesta:     18.01615   7.71345 -18.01615  1      802
siesta:     18.05551   2.57933 -12.90404  1      803
siesta:     12.89668   7.73836 -12.89668  1      804
siesta:     10.32497  -0.00605 -10.32497  1      805
siesta:     15.47961   5.15687 -10.31577  1      806
siesta:     15.48553   0.00413  -5.15456  1      807
siesta:     10.31988   5.15881  -5.15881  1      808
siesta:     12.90050   2.57735  -7.73823  1      809
siesta:     18.07163   7.73268  -7.73268  1      810
siesta:     18.08100   2.57487  -2.57487  1      811
siesta:     12.90050   7.73823  -2.57735  1      812
siesta:     10.32077  -0.00000   0.00000  1      813
siesta:     15.48553   5.15456  -0.00413  1      814
siesta:     15.48553  -0.00413   5.15456  1      815
siesta:     10.32570   5.16210   5.16210  1      816
siesta:     12.90349   2.57886   2.57886  1      817
siesta:     18.05729   7.73671   2.57571  1      818
siesta:     18.05729   2.57571   7.73671  1      819
siesta:     12.90617   7.74332   7.74332  1      820
siesta:     10.32497   0.00605  10.32497  1      821
siesta:     15.49203   5.16805  10.32209  1      822
siesta:     15.48841   0.02272  15.48841  1      823
siesta:     10.32209   5.16805  15.49203  1      824
siesta:     12.90483   2.59281  12.90483  1      825
siesta:     18.07504   7.75352  12.90126  1      826
siesta:     18.07080   2.61385  18.07080  1      827
siesta:     12.90126   7.75352  18.07504  1      828
siesta:     10.31923  -0.00222  20.63434  1      829
siesta:     15.48179   5.18611  20.66246  1      830
siesta:     15.46254  -0.04933  25.73432  1      831
siesta:     10.25197   5.09065  25.72213  1      832
siesta:     12.90620   2.56853  23.20508  1      833
siesta:     18.03059   7.79529  23.21287  1      834
siesta:     10.64285   0.31694  30.88066  1      835
siesta:     10.30916  10.30916 -20.65119  1      836
siesta:     15.47089  10.31906 -15.47089  1      837
siesta:     10.31906  15.47089 -15.47089  1      838
siesta:     12.85398  12.85398 -18.02523  1      839
siesta:     18.02523  12.85398 -12.85398  1      840
siesta:     12.85398  18.02523 -12.85398  1      841
siesta:     10.31500  10.31500 -10.31500  1      842
siesta:     15.47089  15.47089 -10.31906  1      843
siesta:     15.47961  10.31577  -5.15687  1      844
siesta:     10.31577  15.47961  -5.15687  1      845
siesta:     12.89668  12.89668  -7.73836  1      846
siesta:     18.01615  18.01615  -7.71345  1      847
siesta:     18.05551  12.90404  -2.57933  1      848
siesta:     12.90404  18.05551  -2.57933  1      849
siesta:     10.32497  10.32497   0.00605  1      850
siesta:     15.48841  15.48841   0.02272  1      851
siesta:     15.49203  10.32209   5.16805  1      852
siesta:     10.32209  15.49203   5.16805  1      853
siesta:     12.90483  12.90483   2.59281  1      854
siesta:     18.07080  18.07080   2.61385  1      855
siesta:     18.07504  12.90126   7.75352  1      856
siesta:     12.90126  18.07504   7.75352  1      857
siesta:     10.32238  10.32238  10.32238  1      858
siesta:     15.48338  15.48338  10.32380  1      859
siesta:     15.48338  10.32380  15.48338  1      860
siesta:     10.32380  15.48338  15.48338  1      861
siesta:     12.90118  12.90118  12.90118  1      862
siesta:     18.06183  18.06183  12.89307  1      863
siesta:     18.06183  12.89307  18.06183  1      864
siesta:     12.89307  18.06183  18.06183  1      865
siesta:     10.34756  10.34756  20.67803  1      866
siesta:     15.44908  15.44908  20.58395  1      867
siesta:     15.76221  10.60400  25.74665  1      868
siesta:     10.60400  15.76221  25.74665  1      869
siesta:     12.94085  12.94085  23.25590  1      870
siesta:     10.30916  20.65119 -10.30916  1      871
siesta:     15.47607  20.63316  -5.16468  1      872
siesta:     10.31602  25.82968  -5.14214  1      873
siesta:     12.85378  23.19614  -7.68854  1      874
siesta:     18.03439  23.16200  -2.55687  1      875
siesta:     12.88772  28.35161  -2.51949  1      876
siesta:     10.31923  20.63434  -0.00222  1      877
siesta:     15.46254  25.73432  -0.04933  1      878
siesta:     15.48179  20.66246   5.18611  1      879
siesta:     10.25197  25.72213   5.09065  1      880
siesta:     12.90620  23.20508   2.56853  1      881
siesta:     18.03059  23.21287   7.79529  1      882
siesta:     10.34756  20.67803  10.34756  1      883
siesta:     15.76221  25.74665  10.60400  1      884
siesta:     15.44908  20.58395  15.44908  1      885
siesta:     10.60400  25.74665  15.76221  1      886
siesta:     12.94085  23.25590  12.94085  1      887
siesta:     10.26659  20.60352  20.60352  1      888
siesta:     10.64285  30.88066   0.31694  1      889
siesta:     20.58395 -15.44908 -15.44908  1      890
siesta:     23.25590 -12.94085 -12.94085  1      891
siesta:     20.60352 -20.60352 -10.26659  1      892
siesta:     25.74665 -15.76221 -10.60400  1      893
siesta:     20.66246 -15.48179  -5.18611  1      894
siesta:     23.21287 -18.03059  -7.79529  1      895
siesta:     23.20508 -12.90620  -2.56853  1      896
siesta:     20.60083 -20.60083   0.02466  1      897
siesta:     25.73432 -15.46254   0.04933  1      898
siesta:     20.63316 -15.47607   5.16468  1      899
siesta:     23.16200 -18.03439   2.55687  1      900
siesta:     28.35161 -12.88772   2.51949  1      901
siesta:     23.19614 -12.85378   7.68854  1      902
siesta:     20.60352 -10.26659 -20.60352  1      903
siesta:     25.74665 -10.60400 -15.76221  1      904
siesta:     20.66246  -5.18611 -15.48179  1      905
siesta:     23.21287  -7.79529 -18.03059  1      906
siesta:     23.20508  -2.56853 -12.90620  1      907
siesta:     20.67803 -10.34756 -10.34756  1      908
siesta:     25.72213  -5.09065 -10.25197  1      909
siesta:     25.72213 -10.25197  -5.09065  1      910
siesta:     20.63259  -5.15543  -5.15543  1      911
siesta:     23.19121  -7.73658  -7.73658  1      912
siesta:     28.41040  -2.60008  -7.75713  1      913
siesta:     28.41040  -7.75713  -2.60008  1      914
siesta:     23.25633  -2.58915  -2.58915  1      915
siesta:     20.63434 -10.31923   0.00222  1      916
siesta:     25.85436  -5.16006  -0.00568  1      917
siesta:     25.82968 -10.31602   5.14214  1      918
siesta:     20.66507  -5.15262   5.15262  1      919
siesta:     23.24593  -7.73836   2.56620  1      920
siesta:     28.42899  -2.57708   2.57708  1      921
siesta:     28.36541  -7.69856   7.69856  1      922
siesta:     23.24593  -2.56620   7.73836  1      923
siesta:     20.65119 -10.30916  10.30916  1      924
siesta:     25.82968  -5.14214  10.31602  1      925
siesta:     20.63316  -5.16468  15.47607  1      926
siesta:     23.19614  -7.68854  12.85378  1      927
siesta:     28.35161  -2.51949  12.88772  1      928
siesta:     23.16200  -2.55687  18.03439  1      929
siesta:     20.60083   0.02466 -20.60083  1      930
siesta:     25.73432   0.04933 -15.46254  1      931
siesta:     20.63316   5.16468 -15.47607  1      932
siesta:     23.16200   2.55687 -18.03439  1      933
siesta:     28.35161   2.51949 -12.88772  1      934
siesta:     23.19614   7.68854 -12.85378  1      935
siesta:     20.63434   0.00222 -10.31923  1      936
siesta:     25.82968   5.14214 -10.31602  1      937
siesta:     25.85436  -0.00568  -5.16006  1      938
siesta:     20.66507   5.15262  -5.15262  1      939
siesta:     23.24593   2.56620  -7.73836  1      940
siesta:     28.36541   7.69856  -7.69856  1      941
siesta:     28.42899   2.57708  -2.57708  1      942
siesta:     23.24593   7.73836  -2.56620  1      943
siesta:     20.68021   0.00000  -0.00000  1      944
siesta:     25.85436   5.16006   0.00568  1      945
siesta:     25.85436   0.00568   5.16006  1      946
siesta:     20.63259   5.15543   5.15543  1      947
siesta:     23.25633   2.58915   2.58915  1      948
siesta:     28.41040   7.75713   2.60008  1      949
siesta:     28.41040   2.60008   7.75713  1      950
siesta:     23.19121   7.73658   7.73658  1      951
siesta:     20.63434  -0.00222  10.31923  1      952
siesta:     25.72213   5.09065  10.25197  1      953
siesta:     25.73432  -0.04933  15.46254  1      954
siesta:     20.66246   5.18611  15.48179  1      955
siesta:     23.20508   2.56853  12.90620  1      956
siesta:     23.21287   7.79529  18.03059  1      957
siesta:     20.60083  -0.02466  20.60083  1      958
siesta:     20.65119  10.30916 -10.30916  1      959
siesta:     25.82968  10.31602  -5.14214  1      960
siesta:     20.63316  15.47607  -5.16468  1      961
siesta:     23.19614  12.85378  -7.68854  1      962
siesta:     28.35161  12.88772  -2.51949  1      963
siesta:     23.16200  18.03439  -2.55687  1      964
siesta:     20.63434  10.31923  -0.00222  1      965
siesta:     25.73432  15.46254  -0.04933  1      966
siesta:     25.72213  10.25197   5.09065  1      967
siesta:     20.66246  15.48179   5.18611  1      968
siesta:     23.20508  12.90620   2.56853  1      969
siesta:     23.21287  18.03059   7.79529  1      970
siesta:     20.67803  10.34756  10.34756  1      971
siesta:     25.74665  15.76221  10.60400  1      972
siesta:     25.74665  10.60400  15.76221  1      973
siesta:     20.58395  15.44908  15.44908  1      974
siesta:     23.25590  12.94085  12.94085  1      975
siesta:     20.60352  10.26659  20.60352  1      976
siesta:     20.60083  20.60083  -0.02466  1      977
siesta:     20.60352  20.60352  10.26659  1      978
siesta:     30.89011  -5.48376  -5.48376  1      979
siesta:     30.88066 -10.64285  -0.31694  1      980
siesta:     30.93525  -5.16154   5.16154  1      981
siesta:     30.88066  -0.31694 -10.64285  1      982
siesta:     30.93525   5.16154  -5.16154  1      983
siesta:     30.95034  -0.00000  -0.00000  1      984
siesta:     30.89011   5.48376   5.48376  1      985
siesta:     30.88066   0.31694  10.64285  1      986
siesta:     30.88066  10.64285   0.31694  1      987
siesta:    -24.83303 -14.49620  -9.33097  2      988
siesta:    -24.79700 -19.67707  -4.19893  2      989
siesta:    -29.99149 -14.52876  -4.15920  2      990
siesta:    -27.36153 -17.10418   1.60302  2      991
siesta:    -24.84126 -19.67096   6.14352  2      992
siesta:    -24.79700  -4.19893 -19.67707  2      993
siesta:    -24.83303  -9.33097 -14.49620  2      994
siesta:    -29.99149  -4.15920 -14.52876  2      995
siesta:    -30.00289  -9.34080  -9.34080  2      996
siesta:    -27.38032 -11.88320   6.72581  2      997
siesta:    -27.38032  -6.72581  11.88320  2      998
siesta:    -24.84126  -6.14352  19.67096  2      999
siesta:    -27.36153   1.60302 -17.10418  2     1000
siesta:    -24.84126   6.14352 -19.67096  2     1001
siesta:    -27.38032   6.72581 -11.88320  2     1002
siesta:    -30.00289   9.34080   9.34080  2     1003
siesta:    -27.36153  -1.60302  17.10418  2     1004
siesta:    -29.99149   4.15920  14.52876  2     1005
siesta:    -24.83303   9.33097  14.49620  2     1006
siesta:    -24.79700   4.19893  19.67707  2     1007
siesta:    -27.38032  11.88320  -6.72581  2     1008
siesta:    -24.84126  19.67096  -6.14352  2     1009
siesta:    -27.36153  17.10418  -1.60302  2     1010
siesta:    -29.99149  14.52876   4.15920  2     1011
siesta:    -24.79700  19.67707   4.19893  2     1012
siesta:    -24.83303  14.49620   9.33097  2     1013
siesta:    -14.49620 -24.83303  -9.33097  2     1014
siesta:    -14.52876 -29.99149  -4.15920  2     1015
siesta:    -19.67707 -24.79700  -4.19893  2     1016
siesta:    -17.10418 -27.36153   1.60302  2     1017
siesta:    -19.67096 -24.84126   6.14352  2     1018
siesta:    -14.49613 -14.49613 -19.66258  2     1019
siesta:    -14.49613 -19.66258 -14.49613  2     1020
siesta:    -19.66258 -14.49613 -14.49613  2     1021
siesta:    -19.65570 -19.65570  -9.35578  2     1022
siesta:    -22.24957 -22.24957   1.59800  2     1023
siesta:    -22.23495 -22.23495  11.92532  2     1024
siesta:    -17.10018 -22.20347  17.10018  2     1025
siesta:    -22.20347 -17.10018  17.10018  2     1026
siesta:    -17.10018 -17.10018  22.20347  2     1027
siesta:    -14.52876  -4.15920 -29.99149  2     1028
siesta:    -14.49620  -9.33097 -24.83303  2     1029
siesta:    -19.67707  -4.19893 -24.79700  2     1030
siesta:    -19.65570  -9.35578 -19.65570  2     1031
siesta:    -22.23495 -11.92532  22.23495  2     1032
siesta:    -19.67096  -6.14352  24.84126  2     1033
siesta:    -17.10418   1.60302 -27.36153  2     1034
siesta:    -19.67096   6.14352 -24.84126  2     1035
siesta:    -22.24957   1.59800 -22.24957  2     1036
siesta:    -19.65570   9.35578  19.65570  2     1037
siesta:    -22.24957  -1.59800  22.24957  2     1038
siesta:    -17.10418  -1.60302  27.36153  2     1039
siesta:    -19.67707   4.19893  24.79700  2     1040
siesta:    -14.49620   9.33097  24.83303  2     1041
siesta:    -14.52876   4.15920  29.99149  2     1042
siesta:    -22.23495  11.92532 -22.23495  2     1043
siesta:    -17.10018  17.10018 -22.20347  2     1044
siesta:    -22.20347  17.10018 -17.10018  2     1045
siesta:    -19.65570  19.65570   9.35578  2     1046
siesta:    -19.66258  14.49613  14.49613  2     1047
siesta:    -14.49613  19.66258  14.49613  2     1048
siesta:    -14.49613  14.49613  19.66258  2     1049
siesta:    -17.10018  22.20347 -17.10018  2     1050
siesta:    -22.23495  22.23495 -11.92532  2     1051
siesta:    -19.67096  24.84126  -6.14352  2     1052
siesta:    -22.24957  22.24957  -1.59800  2     1053
siesta:    -17.10418  27.36153  -1.60302  2     1054
siesta:    -19.67707  24.79700   4.19893  2     1055
siesta:    -14.52876  29.99149   4.15920  2     1056
siesta:    -14.49620  24.83303   9.33097  2     1057
siesta:     -4.19893 -24.79700 -19.67707  2     1058
siesta:     -4.15920 -29.99149 -14.52876  2     1059
siesta:     -9.33097 -24.83303 -14.49620  2     1060
siesta:     -9.34080 -30.00289  -9.34080  2     1061
siesta:    -11.88320 -27.38032   6.72581  2     1062
siesta:     -6.72581 -27.38032  11.88320  2     1063
siesta:     -6.14352 -24.84126  19.67096  2     1064
siesta:     -4.15920 -14.52876 -29.99149  2     1065
siesta:     -4.19893 -19.67707 -24.79700  2     1066
siesta:     -9.33097 -14.49620 -24.83303  2     1067
siesta:     -9.35578 -19.65570 -19.65570  2     1068
siesta:    -11.92532 -22.23495  22.23495  2     1069
siesta:     -6.14352 -19.67096  24.84126  2     1070
siesta:     -9.34080  -9.34080 -30.00289  2     1071
siesta:     -6.72581 -11.88320  27.38032  2     1072
siesta:    -11.88320  -6.72581  27.38032  2     1073
siesta:    -11.88320   6.72581 -27.38032  2     1074
siesta:     -9.34080   9.34080  30.00289  2     1075
siesta:     -6.72581  11.88320 -27.38032  2     1076
siesta:     -6.14352  19.67096 -24.84126  2     1077
siesta:     -9.35578  19.65570  19.65570  2     1078
siesta:     -9.33097  14.49620  24.83303  2     1079
siesta:     -4.19893  19.67707  24.79700  2     1080
siesta:     -4.15920  14.52876  29.99149  2     1081
siesta:    -11.92532  22.23495 -22.23495  2     1082
siesta:     -6.14352  24.84126 -19.67096  2     1083
siesta:     -6.72581  27.38032 -11.88320  2     1084
siesta:    -11.88320  27.38032  -6.72581  2     1085
siesta:     -9.34080  30.00289   9.34080  2     1086
siesta:     -9.33097  24.83303  14.49620  2     1087
siesta:     -4.15920  29.99149  14.52876  2     1088
siesta:     -4.19893  24.79700  19.67707  2     1089
siesta:      1.60302 -27.36153 -17.10418  2     1090
siesta:      6.14352 -24.84126 -19.67096  2     1091
siesta:      6.72581 -27.38032 -11.88320  2     1092
siesta:      9.34080 -30.00289   9.34080  2     1093
siesta:     -1.60302 -27.36153  17.10418  2     1094
siesta:      4.15920 -29.99149  14.52876  2     1095
siesta:      9.33097 -24.83303  14.49620  2     1096
siesta:      4.19893 -24.79700  19.67707  2     1097
siesta:      1.60302 -17.10418 -27.36153  2     1098
siesta:      6.14352 -19.67096 -24.84126  2     1099
siesta:      1.59800 -22.24957 -22.24957  2     1100
siesta:      9.35578 -19.65570  19.65570  2     1101
siesta:     -1.59800 -22.24957  22.24957  2     1102
siesta:     -1.60302 -17.10418  27.36153  2     1103
siesta:      4.19893 -19.67707  24.79700  2     1104
siesta:      9.33097 -14.49620  24.83303  2     1105
siesta:      4.15920 -14.52876  29.99149  2     1106
siesta:      6.72581 -11.88320 -27.38032  2     1107
siesta:      9.34080  -9.34080  30.00289  2     1108
siesta:      9.34080   9.34080 -30.00289  2     1109
siesta:     -1.60302  17.10418 -27.36153  2     1110
siesta:      4.15920  14.52876 -29.99149  2     1111
siesta:      9.33097  14.49620 -24.83303  2     1112
siesta:      4.19893  19.67707 -24.79700  2     1113
siesta:      9.35578  19.65570 -19.65570  2     1114
siesta:      6.72581  11.88320  27.38032  2     1115
siesta:      1.60302  17.10418  27.36153  2     1116
siesta:      6.14352  19.67096  24.84126  2     1117
siesta:     -1.59800  22.24957 -22.24957  2     1118
siesta:     -1.60302  27.36153 -17.10418  2     1119
siesta:      4.19893  24.79700 -19.67707  2     1120
siesta:      9.33097  24.83303 -14.49620  2     1121
siesta:      4.15920  29.99149 -14.52876  2     1122
siesta:      9.34080  30.00289  -9.34080  2     1123
siesta:      6.72581  27.38032  11.88320  2     1124
siesta:      1.60302  27.36153  17.10418  2     1125
siesta:      6.14352  24.84126  19.67096  2     1126
siesta:      1.59800  22.24957  22.24957  2     1127
siesta:     11.88320 -27.38032  -6.72581  2     1128
siesta:     19.67096 -24.84126  -6.14352  2     1129
siesta:     17.10418 -27.36153  -1.60302  2     1130
siesta:     14.52876 -29.99149   4.15920  2     1131
siesta:     19.67707 -24.79700   4.19893  2     1132
siesta:     14.49620 -24.83303   9.33097  2     1133
siesta:     11.92532 -22.23495 -22.23495  2     1134
siesta:     17.10018 -17.10018 -22.20347  2     1135
siesta:     17.10018 -22.20347 -17.10018  2     1136
siesta:     19.65570 -19.65570   9.35578  2     1137
siesta:     14.49613 -19.66258  14.49613  2     1138
siesta:     19.66258 -14.49613  14.49613  2     1139
siesta:     14.49613 -14.49613  19.66258  2     1140
siesta:     11.88320  -6.72581 -27.38032  2     1141
siesta:     19.67096  -6.14352 -24.84126  2     1142
siesta:     19.65570  -9.35578  19.65570  2     1143
siesta:     14.49620  -9.33097  24.83303  2     1144
siesta:     19.67707  -4.19893  24.79700  2     1145
siesta:     14.52876  -4.15920  29.99149  2     1146
siesta:     17.10418  -1.60302 -27.36153  2     1147
siesta:     14.52876   4.15920 -29.99149  2     1148
siesta:     19.67707   4.19893 -24.79700  2     1149
siesta:     14.49620   9.33097 -24.83303  2     1150
siesta:     19.65570   9.35578 -19.65570  2     1151
siesta:     17.10418   1.60302  27.36153  2     1152
siesta:     11.88320   6.72581  27.38032  2     1153
siesta:     19.67096   6.14352  24.84126  2     1154
siesta:     14.49613  14.49613 -19.66258  2     1155
siesta:     19.66258  14.49613 -14.49613  2     1156
siesta:     14.49613  19.66258 -14.49613  2     1157
siesta:     19.65570  19.65570  -9.35578  2     1158
siesta:     17.10018  17.10018  22.20347  2     1159
siesta:     14.49620  24.83303  -9.33097  2     1160
siesta:     19.67707  24.79700  -4.19893  2     1161
siesta:     14.52876  29.99149  -4.15920  2     1162
siesta:     17.10418  27.36153   1.60302  2     1163
siesta:     11.88320  27.38032   6.72581  2     1164
siesta:     19.67096  24.84126   6.14352  2     1165
siesta:     17.10018  22.20347  17.10018  2     1166
siesta:     11.92532  22.23495  22.23495  2     1167
siesta:     22.20347 -17.10018 -17.10018  2     1168
siesta:     22.23495 -22.23495 -11.92532  2     1169
siesta:     24.84126 -19.67096  -6.14352  2     1170
siesta:     22.24957 -22.24957  -1.59800  2     1171
siesta:     27.36153 -17.10418  -1.60302  2     1172
siesta:     24.79700 -19.67707   4.19893  2     1173
siesta:     29.99149 -14.52876   4.15920  2     1174
siesta:     24.83303 -14.49620   9.33097  2     1175
siesta:     22.23495 -11.92532 -22.23495  2     1176
siesta:     24.84126  -6.14352 -19.67096  2     1177
siesta:     27.38032  -6.72581 -11.88320  2     1178
siesta:     27.38032 -11.88320  -6.72581  2     1179
siesta:     30.00289  -9.34080   9.34080  2     1180
siesta:     24.83303  -9.33097  14.49620  2     1181
siesta:     29.99149  -4.15920  14.52876  2     1182
siesta:     24.79700  -4.19893  19.67707  2     1183
siesta:     22.24957  -1.59800 -22.24957  2     1184
siesta:     27.36153  -1.60302 -17.10418  2     1185
siesta:     24.79700   4.19893 -19.67707  2     1186
siesta:     29.99149   4.15920 -14.52876  2     1187
siesta:     24.83303   9.33097 -14.49620  2     1188
siesta:     30.00289   9.34080  -9.34080  2     1189
siesta:     27.38032   6.72581  11.88320  2     1190
siesta:     27.36153   1.60302  17.10418  2     1191
siesta:     24.84126   6.14352  19.67096  2     1192
siesta:     22.24957   1.59800  22.24957  2     1193
siesta:     24.83303  14.49620  -9.33097  2     1194
siesta:     29.99149  14.52876  -4.15920  2     1195
siesta:     24.79700  19.67707  -4.19893  2     1196
siesta:     27.36153  17.10418   1.60302  2     1197
siesta:     27.38032  11.88320   6.72581  2     1198
siesta:     24.84126  19.67096   6.14352  2     1199
siesta:     22.20347  17.10018  17.10018  2     1200
siesta:     22.23495  11.92532  22.23495  2     1201
siesta:     22.24957  22.24957   1.59800  2     1202
siesta:     22.23495  22.23495  11.92532  2     1203
siesta:    -26.92954 -17.59152  12.41506  2     1204
siesta:    -27.85181 -14.41649   9.27216  2     1205
siesta:    -32.61677  -6.77642  -3.55494  2     1206
siesta:    -32.61677  -3.55494  -6.77642  2     1207
siesta:    -31.98284 -12.48648   2.16438  2     1208
siesta:    -33.04851  -9.36433  -0.97998  2     1209
siesta:    -31.98484  -7.33136   7.33136  2     1210
siesta:    -33.06460  -4.20087   4.20087  2     1211
siesta:    -26.92954 -12.41506  17.59152  2     1212
siesta:    -27.85181  -9.27216  14.41649  2     1213
siesta:    -33.04851  -0.97998  -9.36433  2     1214
siesta:    -31.98284   2.16438 -12.48648  2     1215
siesta:    -33.06460   4.20087  -4.20087  2     1216
siesta:    -31.98484   7.33136  -7.33136  2     1217
siesta:    -32.63220  -1.61071   1.61071  2     1218
siesta:    -32.63220   1.61071  -1.61071  2     1219
siesta:    -32.61677   3.55494   6.77642  2     1220
siesta:    -32.61677   6.77642   3.55494  2     1221
siesta:    -31.98284  -2.16438  12.48648  2     1222
siesta:    -33.04851   0.97998   9.36433  2     1223
siesta:    -27.85181   9.27216 -14.41649  2     1224
siesta:    -26.92954  12.41506 -17.59152  2     1225
siesta:    -27.85181  14.41649  -9.27216  2     1226
siesta:    -26.92954  17.59152 -12.41506  2     1227
siesta:    -33.04851   9.36433   0.97998  2     1228
siesta:    -31.98284  12.48648  -2.16438  2     1229
siesta:    -14.41649 -27.85181   9.27216  2     1230
siesta:    -17.59152 -26.92954  12.41506  2     1231
siesta:    -14.41649  -9.27216  27.85181  2     1232
siesta:    -17.59152 -12.41506  26.92954  2     1233
siesta:    -17.59152  12.41506 -26.92954  2     1234
siesta:    -14.41649   9.27216 -27.85181  2     1235
siesta:    -17.59152  26.92954 -12.41506  2     1236
siesta:    -14.41649  27.85181  -9.27216  2     1237
siesta:     -3.55494 -32.61677  -6.77642  2     1238
siesta:     -6.77642 -32.61677  -3.55494  2     1239
siesta:     -9.36433 -33.04851  -0.97998  2     1240
siesta:    -12.48648 -31.98284   2.16438  2     1241
siesta:     -4.20087 -33.06460   4.20087  2     1242
siesta:     -7.33136 -31.98484   7.33136  2     1243
siesta:     -9.27216 -27.85181  14.41649  2     1244
siesta:    -12.41506 -26.92954  17.59152  2     1245
siesta:    -12.41506 -17.59152  26.92954  2     1246
siesta:     -9.27216 -14.41649  27.85181  2     1247
siesta:     -6.77642  -3.55494 -32.61677  2     1248
siesta:     -3.55494  -6.77642 -32.61677  2     1249
siesta:     -4.20087  -4.20087  33.06460  2     1250
siesta:     -7.33136  -7.33136  31.98484  2     1251
siesta:    -12.48648   2.16438 -31.98284  2     1252
siesta:     -9.36433  -0.97998 -33.04851  2     1253
siesta:     -7.33136   7.33136 -31.98484  2     1254
siesta:     -4.20087   4.20087 -33.06460  2     1255
siesta:    -12.48648  -2.16438  31.98284  2     1256
siesta:     -9.36433   0.97998  33.04851  2     1257
siesta:     -3.55494   6.77642  32.61677  2     1258
siesta:     -6.77642   3.55494  32.61677  2     1259
siesta:    -12.41506  17.59152 -26.92954  2     1260
siesta:     -9.27216  14.41649 -27.85181  2     1261
siesta:     -9.27216  27.85181 -14.41649  2     1262
siesta:    -12.41506  26.92954 -17.59152  2     1263
siesta:     -7.33136  31.98484  -7.33136  2     1264
siesta:     -4.20087  33.06460  -4.20087  2     1265
siesta:     -9.36433  33.04851   0.97998  2     1266
siesta:    -12.48648  31.98284  -2.16438  2     1267
siesta:     -6.77642  32.61677   3.55494  2     1268
siesta:     -3.55494  32.61677   6.77642  2     1269
siesta:      2.16438 -31.98284 -12.48648  2     1270
siesta:     -0.97998 -33.04851  -9.36433  2     1271
siesta:      7.33136 -31.98484  -7.33136  2     1272
siesta:      4.20087 -33.06460  -4.20087  2     1273
siesta:      1.61071 -32.63220  -1.61071  2     1274
siesta:     -1.61071 -32.63220   1.61071  2     1275
siesta:      6.77642 -32.61677   3.55494  2     1276
siesta:      3.55494 -32.61677   6.77642  2     1277
siesta:      0.97998 -33.04851   9.36433  2     1278
siesta:     -2.16438 -31.98284  12.48648  2     1279
siesta:     -0.97998  -9.36433 -33.04851  2     1280
siesta:      2.16438 -12.48648 -31.98284  2     1281
siesta:      4.20087  -4.20087 -33.06460  2     1282
siesta:      7.33136  -7.33136 -31.98484  2     1283
siesta:     -2.16438 -12.48648  31.98284  2     1284
siesta:      0.97998  -9.36433  33.04851  2     1285
siesta:      6.77642  -3.55494  32.61677  2     1286
siesta:      3.55494  -6.77642  32.61677  2     1287
siesta:     -1.61071   1.61071 -32.63220  2     1288
siesta:      1.61071  -1.61071 -32.63220  2     1289
siesta:      3.55494   6.77642 -32.61677  2     1290
siesta:      6.77642   3.55494 -32.61677  2     1291
siesta:     -1.61071  -1.61071  32.63220  2     1292
siesta:      1.61071   1.61071  32.63220  2     1293
siesta:      7.33136   7.33136  31.98484  2     1294
siesta:      4.20087   4.20087  33.06460  2     1295
siesta:     -2.16438  12.48648 -31.98284  2     1296
siesta:      0.97998   9.36433 -33.04851  2     1297
siesta:     -0.97998   9.36433  33.04851  2     1298
siesta:      2.16438  12.48648  31.98284  2     1299
[...]
siesta:      9.27216  14.41649  27.85181  2     1326
siesta:     12.41506  17.59152  26.92954  2     1327
siesta:     14.41649  27.85181   9.27216  2     1328
siesta:     17.59152  26.92954  12.41506  2     1329
siesta:     12.41506  26.92954  17.59152  2     1330
siesta:      9.27216  27.85181  14.41649  2     1331
siesta:     12.48648  31.98284   2.16438  2     1332
siesta:      9.36433  33.04851  -0.97998  2     1333
siesta:     27.85181 -14.41649  -9.27216  2     1334
siesta:     26.92954 -17.59152 -12.41506  2     1335
siesta:     26.92954 -12.41506 -17.59152  2     1336
siesta:     27.85181  -9.27216 -14.41649  2     1337
siesta:     26.92954  17.59152  12.41506  2     1338
siesta:     27.85181  14.41649   9.27216  2     1339
siesta:     27.85181   9.27216  14.41649  2     1340
siesta:     26.92954  12.41506  17.59152  2     1341
siesta:     33.06460  -4.20087  -4.20087  2     1342
siesta:     31.98484  -7.33136  -7.33136  2     1343
siesta:     31.98284 -12.48648  -2.16438  2     1344
siesta:     33.04851  -9.36433   0.97998  2     1345
siesta:     32.61677  -3.55494   6.77642  2     1346
siesta:     32.61677  -6.77642   3.55494  2     1347
siesta:     31.98284  -2.16438 -12.48648  2     1348
siesta:     33.04851   0.97998  -9.36433  2     1349
siesta:     32.61677   6.77642  -3.55494  2     1350
siesta:     32.61677   3.55494  -6.77642  2     1351
siesta:     32.63220  -1.61071  -1.61071  2     1352
siesta:     32.63220   1.61071   1.61071  2     1353
siesta:     31.98484   7.33136   7.33136  2     1354
siesta:     33.06460   4.20087   4.20087  2     1355
siesta:     33.04851  -0.97998   9.36433  2     1356
siesta:     31.98284   2.16438  12.48648  2     1357
siesta:     33.04851   9.36433  -0.97998  2     1358
siesta:     31.98284  12.48648   2.16438  2     1359

siesta: System type = molecule  

initatomlists: Number of atoms, orbitals, and projectors:   1359  4320 10371

siesta: ******************** Simulation parameters ****************************
siesta:
siesta: The following are some of the parameters of the simulation.
siesta: A complete list of the parameters used, including default values,
siesta: can be found in file out.fdf
siesta:
redata: Spin configuration                          = none
redata: Number of spin components                   = 1
redata: Time-Reversal Symmetry                      = T
redata: Spin spiral                                 = F
redata: Long output                                 =   F
redata: Number of Atomic Species                    =        2
redata: Charge density info will appear in .RHO file
redata: Write Mulliken charges (when)               = none
redata: Write Mulliken Pop.                         = NO
redata: Write Hirshfeld charges (when)              = none
redata: Write Voronoi charges (when)                = none
redata: Write spin charge (when)                    = none
redata: Matel table size (NRTAB)                    =     1024
redata: Mesh Cutoff                                 =   150.0000 Ry
redata: Net charge of the system                    =     0.0000 |e|
redata: Min. number of SCF Iter                     =        0
redata: Max. number of SCF Iter                     =        1
redata: SCF mix quantity                            = Hamiltonian
redata: Mix DM or H after convergence               =   F
redata: Recompute H after scf cycle                 =   F
redata: Mix DM in first SCF step                    =   T
redata: Write Pulay info on disk                    =   F
redata: New DM Occupancy tolerance                  = 0.000000000001
redata: No kicks to SCF
redata: DM Mixing Weight for Kicks                  =     0.5000
redata: Require Harris convergence for SCF          =   F
redata: Harris energy tolerance for SCF             =     0.000100 eV
redata: Require DM convergence for SCF              =   T
redata: DM tolerance for SCF                        =     0.001000
redata: Require EDM convergence for SCF             =   F
redata: EDM tolerance for SCF                       =     0.001000 eV
redata: Require H convergence for SCF               =   T
redata: Hamiltonian tolerance for SCF               =     0.001000 eV
redata: Require (free) Energy convergence for SCF   =   F
redata: (free) Energy tolerance for SCF             =     0.000100 eV
redata: Using DFT-D3 dispersion                     =   F
redata: Using Saved Data (generic)                  =   F
redata: Use continuation files for DM               =   T
redata: Neglect nonoverlap interactions             =   F
redata: Method of Calculation                       = ELSI solvers
redata: Electronic Temperature                      =   290.1130 K
redata: Fix the spin of the system                  =   F
redata: Max. number of TDED Iter                    =        1
redata: Number of TDED substeps                     =        3
redata: Dynamics option                             = Single-point calculation
mix.SCF: Pulay mixing                            = Pulay
mix.SCF:    Variant                              = stable
mix.SCF:    History steps                        = 4
mix.SCF:    Linear mixing weight                 =     0.300000
mix.SCF:    Mixing weight                        =     0.300000
mix.SCF:    SVD condition                        = 0.1000E-07
redata: Save all siesta data in one NC              =   F
redata: ***********************************************************************

%block SCF.Mixers
  Pulay
%endblock SCF.Mixers

%block SCF.Mixer.Pulay
  # Mixing method
  method pulay
  variant stable

  # Mixing options
  weight 0.3000
  weight.linear 0.3000
  history 4
%endblock SCF.Mixer.Pulay

DM_history_depth set to one: no extrapolation allowed by default for geometry relaxation
Size of DM history Fstack: 1
Total number of electrons:  4320.000000
Total ionic charge:  4320.000000

* ProcessorY, Blocksize:    2  64


* Orbital distribution balance (max,min):  1088  1056


siesta: k-grid: Number of k-points = 1
siesta: k-point is Gamma-only


ts: **************************************************************
ts: Save H and S matrices                           =    F
ts: Save DM and EDM matrices                        =    F
ts: Only save the overlap matrix S                  =    F
ts: **************************************************************

************************ Begin: TS CHECKS AND WARNINGS ************************
************************ End: TS CHECKS AND WARNINGS **************************


                     ====================================
                        Single-point calculation
                     ====================================

outcell: Unit cell vectors (Ang):
       45.000000    0.000000    0.000000
        0.000000   45.000000    0.000000
        0.000000    0.000000   45.000000

outcell: Cell vector modules (Ang)   :   45.000000   45.000000   45.000000
outcell: Cell angles (23,13,12) (deg):     90.0000     90.0000     90.0000
outcell: Cell volume (Ang**3)        :  91125.0000
<dSpData1D:S at geom step 0
  <sparsity:sparsity for geom step 0
    nrows_g=4320 nrows=1088 sparsity=.0116 nnzs=216498, refcount: 7>
  <dData1D:(new from dSpData1D) n=216498, refcount: 1>
refcount: 1>
new_DM -- step:     1
Initializing Density Matrix...

Attempting to read DM from file... Failed...
DM filled with atomic data:
<dSpData2D:DM initialized from atoms
  <sparsity:sparsity for geom step 0
    nrows_g=4320 nrows=1088 sparsity=.0116 nnzs=216498, refcount: 8>
  <dData2D:DM n=216498 m=1, refcount: 1>
refcount: 1>
No. of atoms with KB's overlaping orbs in proc 0. Max # of overlaps:    1150      56

InitMesh: MESH = 360 x 360 x 360 = 46656000
InitMesh: Mesh cutoff (required, used) =   150.000   176.881 Ry
New grid distribution [1]: sub = 2
New grid distribution [2]: sub = 2
New grid distribution [3]: sub = 2
Setting up quadratic distribution...
      Allocating      0.866 MB for row_ind_sp2
      Allocating      0.009 MB for col_ptr_sp2
      Allocating     37.880 MB for ham_real_den
      Allocating     37.880 MB for ovlp_real_den
      Allocating      1.732 MB for s_val_send
      Allocating      1.732 MB for dest
      Allocating      1.732 MB for perm
      Allocating      1.732 MB for h_val_send
      Allocating      0.866 MB for row_send
      Allocating      0.866 MB for col_send
      Allocating      0.000 MB for send_count
      Deallocating dest
      Deallocating perm
      Allocating      0.000 MB for recv_count
      Allocating      0.000 MB for send_displ
      Allocating      0.000 MB for recv_displ
      Allocating      0.891 MB for row_recv
      Deallocating row_send
      Allocating      0.891 MB for col_recv
      Deallocating col_send
      Allocating      1.781 MB for h_val_recv
      Deallocating h_val_send
      Allocating      1.781 MB for s_val_recv
      Deallocating s_val_send
      Deallocating send_count
      Deallocating recv_count
      Deallocating send_displ
      Deallocating recv_displ
      Deallocating s_val_recv
      Deallocating h_val_recv
      Deallocating row_recv
      Deallocating col_recv
  Finished matrix redistribution
  | Time :     0.055 s
      Allocating      0.035 MB for eval
      Allocating     37.880 MB for evec_real
      Allocating     37.880 MB for dm_real_den
      Allocating      0.035 MB for occ
  Starting ELPA eigensolver
  Finished Cholesky decomposition
  | Time :     1.156 s
      Allocating     38.994 MB for tmp
      Deallocating tmp
  Finished transformation to standard eigenproblem
  | Time :     1.653 s
  Finished solving standard eigenproblem
  | Time :    10.520 s
      Allocating     37.880 MB for tmp
      Deallocating tmp
  Finished back-transformation of eigenvectors
  | Time :     1.490 s
      Allocating      0.035 MB for eval_all
      Allocating      0.000 MB for k_wt
      Deallocating eval_all
      Deallocating k_wt
      Allocating     37.880 MB for tmp
      Allocating     38.994 MB for tmp
      Deallocating tmp
      Deallocating tmp
  Finished density matrix calculation
  | Time :     1.912 s
      Allocating     37.879 MB for dest
      Allocating     37.879 MB for perm
      Allocating     37.879 MB for val_send
      Allocating     18.939 MB for row_send
      Allocating     18.939 MB for col_send
      Allocating      0.000 MB for send_count
      Deallocating dest
      Deallocating perm
      Allocating      0.000 MB for recv_count
      Allocating      0.000 MB for send_displ
      Allocating      0.000 MB for recv_displ
      Allocating     18.800 MB for row_recv
      Deallocating row_send
      Allocating     18.800 MB for col_recv
      Deallocating col_send
      Allocating     37.601 MB for val_recv
      Deallocating val_send
      Deallocating send_count
      Deallocating recv_count
      Deallocating send_displ
      Deallocating recv_displ
      Deallocating row_recv
      Deallocating col_recv
      Deallocating val_recv
  Finished matrix redistribution
  | Time :     0.881 s

siesta: Program's energy decomposition (eV):
siesta: Ebs     =    -56144.884154
siesta: Eions   =    239702.476076
siesta: Ena     =     97538.858357
siesta: Ekin    =     43507.672379
siesta: Enl     =     17086.126707
siesta: Eso     =         0.000000
siesta: Edftu   =         0.000000
siesta: DEna    =      4852.457362
siesta: DUscf   =       299.046627
siesta: DUext   =         0.000000
siesta: Ex      =    -29138.743110
siesta: Ec      =     -5440.491609
siesta: Exc     =    -34579.234719
siesta: EbV     =         0.000000
siesta: eta*DQ  =         0.000000
siesta: Emadel  =         0.000000
siesta: Emeta   =         0.000000
siesta: Emolmec =         0.000000
siesta: Ekinion =         0.000000
siesta: Eharris =   -111738.112576
siesta: Etot    =   -110997.549364
siesta: FreeEng =   -110997.549364

        iscf     Eharris(eV)        E_KS(eV)     FreeEng(eV)     dDmax    Ef(eV) dHmax(eV)
   scf:    1  -111738.112576  -110997.549364  -110997.549364  1.174198 -3.236014  6.050543
             Section          Calls    Walltime % sect.
 IterSCF                          1      26.900  100.00
  compute_dm                      1      17.739   65.94
  setup_H                         1       9.147   34.00
  MIXER                           1       0.003    0.01
timer: Routine,Calls,Time,% = IterSCF        1      26.900  57.58
SCF_NOT_CONV: SCF did not converge  in maximum number of steps.
Geom step, scf iteration, dDmax, dHmax:    0     1      1.174198     0.444707
      Deallocating ham_real_den
      Deallocating ovlp_real_den
      Deallocating eval
      Deallocating evec_real
      Deallocating dm_real_den
      Deallocating row_ind_sp2
      Deallocating col_ptr_sp2
      Deallocating occ

siesta: E_KS(eV) =          -110997.5494

siesta: E_KS - E_eggbox =   -110997.5494

siesta: Atomic forces (eV/Ang):
----------------------------------------
   Tot    0.000000    0.000000    0.000000
----------------------------------------
   Max    0.000000
   Res    0.000000    sqrt( Sum f_i^2 / 3N )
----------------------------------------
   Max    0.000000    constrained

Stress tensor Voigt[x,y,z,yz,xz,xy] (kbar):    -1221.80    -1221.80    -1221.80        0.00        0.00        0.00
(Free)E + p*V (eV/cell)   -41506.4943
Target enthalpy (eV/cell)  -110997.5494

siesta: Program's energy decomposition (eV):
siesta: Ebs     =    -56144.884154
siesta: Eions   =    239702.476076
siesta: Ena     =     97538.858357
siesta: Ekin    =     43507.672379
siesta: Enl     =     17086.126707
siesta: Eso     =         0.000000
siesta: Edftu   =         0.000000
siesta: DEna    =      4852.457362
siesta: DUscf   =       299.046627
siesta: DUext   =         0.000000
siesta: Ex      =    -29138.743110
siesta: Ec      =     -5440.491609
siesta: Exc     =    -34579.234719
siesta: EbV     =         0.000000
siesta: eta*DQ  =         0.000000
siesta: Emadel  =         0.000000
siesta: Emeta   =         0.000000
siesta: Emolmec =         0.000000
siesta: Ekinion =         0.000000
siesta: Eharris =   -111738.112576
siesta: Etot    =   -110997.549364
siesta: FreeEng =   -110997.549364

siesta: Final energy (eV):
siesta:  Band Struct. =  -56144.884154
siesta:       Kinetic =   43507.672379
siesta:       Hartree = 1894196.478152
siesta:         Edftu =       0.000000
siesta:       Eso     =       0.000000
siesta:    Ext. field =       0.000000
siesta:         Exch. =  -29138.743110
siesta:         Corr. =   -5440.491609
siesta:     Bulk bias =       0.000000
siesta:   Exch.-corr. =  -34579.234719
siesta:  Ion-electron =-3842960.168812
siesta:       Ion-ion = 1828837.703636
siesta:       Ekinion =       0.000000
siesta: D3 dispersion =       0.000000
siesta:         Total = -110997.549364
siesta:         Fermi =      -3.236014

siesta: Stress tensor (static) (eV/Ang**3):
siesta:    -0.762590    0.000000    0.000000
siesta:     0.000000   -0.762590    0.000000
siesta:     0.000000    0.000000   -0.762590

siesta: Cell volume =      91125.000000 Ang**3

siesta: Pressure (static):
siesta:                Solid            Molecule  Units
siesta:           0.00830566          0.00830566  Ry/Bohr**3
siesta:           0.76259045          0.76259045  eV/Ang**3
siesta:        1221.80460490       1221.80460490  kBar
(Free)E+ p_basis*V_orbitals  =     -110705.313694
(Free)Eharris+ p_basis*V_orbitals  =     -111445.876906

siesta: Electric dipole (a.u.)  =    0.000000    0.000000    0.000000
siesta: Electric dipole (Debye) =    0.000000    0.000000    0.000000

cite: Please see "si-qdot-elsi-elpa.bib" for an exhaustive BiBTeX file.
cite: Please clearly indicate Siesta version in published work: 5.2.0-17-gad84d481e
cite: This calculation has made use of the following articles
cite: which are encouraged to be cited in a published work.
        Primary SIESTA paper
          DOI: www.doi.org/10.1088/0953-8984/14/11/302
        ELSI library interface
          DOI: www.doi.org/10.1016/j.cpc.2017.09.007
        ELPA library
          DOI: www.doi.org/10.1088/0953-8984/26/21/213201


             Section          Calls    Walltime       %
 global_section                   1      46.744  100.00
  siesta                          1      46.744  100.00
   Setup                          1       0.375    0.80
    bands                         1       0.000    0.00
    KSV_init                      1       0.000    0.00
   IterGeom                       1      46.347   99.15
    geom_init                     1      19.441   41.59
     state_init                   1       0.191    0.41
      hsparse                     1       0.043    0.09
      overlap                     1       0.029    0.06
     Setup_H0                     1      11.345   24.27
      naefs                       1       0.008    0.02
      dnaefs                      1       0.004    0.01
      MolMec                      1       0.018    0.04
      kinefsm                     1       0.020    0.04
      nlefsm                      1       0.122    0.26
      DHSCF_Init                  1      11.174   23.91
       DHSCF1                     1       0.047    0.10
        InitMesh                  1       0.031    0.07
         INITMESH                 1       0.000    0.00
       DHSCF2                     1      11.122   23.79
        REMESH                    1       0.429    0.92
         INITMESH                 2       0.063    0.14
          BuildDISTR              2       0.063    0.13
           meshCom-Ca             3       0.000    0.00
        REORD                     1       0.014    0.03
        PHION                     1       2.511    5.37
        dscfComm                  1       0.661    1.41
        COMM_BSC                  1       0.123    0.26
        POISON                    1       5.549   11.87
         fft                      2       5.262   11.26
     setup_H                      1       7.905   16.91
      DHSCF                       1       7.900   16.90
       DHSCF3                     1       7.900   16.90
        rhoofd                    1       0.666    1.43
         OtoM                     1       0.028    0.06
        COMM_BSC                  2       0.261    0.56
        POISON                    1       5.292   11.32
         fft                      2       5.024   10.75
        XC                        1       0.669    1.43
         COMM_BSC                 2       0.131    0.28
         GXC-CellXC               1       0.486    1.04
          gridxc@cellXC           1       0.486    1.04
        vmat                      1       0.516    1.10
         MtoO                     1       0.035    0.07
    IterSCF                       1      26.900   57.55
     compute_dm                   1      17.739   37.95
      elsi                        1      17.728   37.93
       find nnz_g                 1       0.000    0.00
       elsi-solver                1      17.726   37.92
     setup_H                      1       9.147   19.57
      DHSCF                       1       9.142   19.56
       DHSCF3                     1       9.142   19.56
        rhoofd                    1       0.671    1.44
         OtoM                     1       0.032    0.07
        COMM_BSC                  2       0.229    0.49
        POISON                    1       6.464   13.83
         fft                      2       6.178   13.22
        XC                        1       0.666    1.43
         COMM_BSC                 2       0.100    0.21
         GXC-CellXC               1       0.504    1.08
          gridxc@cellXC           1       0.504    1.08
        vmat                      1       0.568    1.21
         MtoO                     1       0.067    0.14
     MIXER                        1       0.003    0.01
    state_analysis                1       0.004    0.01
    siesta_move                   1       0.000    0.00
   Analysis                       1       0.017    0.04
    optical                       1       0.000    0.00

>> End of run:  17-JAN-2025  14:35:33
Job completed
