Executable      : /home/fnpedron/Siesta/siesta-dev/_siesta_bin/bin/siesta
Version         : 5.1-MaX-50-g4df4b742f-dirty
Architecture    : x86_64
Compiler version: GNU-11.4.0
Compiler flags  : -g -fallow-argument-mismatch -O3 -march=native
Environment variables: 
  SIESTA_PS_PATH: /home/fnpedron/Siesta/siesta-dev/Tests/Pseudos
Parallelisations: MPI
NetCDF support
NetCDF-4 support
Lua support
DFT-D3 support

Runtime information:
* Directory : /home/fnpedron/Siesta/siesta-dev/Tests/09.MolecularDynamics/work/anneal_pt
* Running on 4 nodes in parallel.
>> Start of run:   5-SEP-2024  22:07:48

                           *********************** 
                           *  WELCOME TO SIESTA  * 
                           *********************** 

 NOTE: Siesta V5 introduces some new defaults for basis-set generation
 NOTE: which might lead to slightly different numerical results.
 NOTE: Please see the manual for full details and compatibility measures.


reinit: Reading from standard input
reinit: Dumping input in INPUT_TMP.82864
************************** Dump of input data file ****************************
%include ../../base_wat2.fdf
SystemLabel           anneal_pt
MD.TypeOfRun          anneal
MD.AnnealOption       TemperatureAndPressure
MD.InitialTemperature 100 K
MD.TargetTemperature  600 K
MD.TauRelax           25 fs
MD.TargetPressure     10.0 GPa
************************** End of input data file *****************************

reinit: -----------------------------------------------------------------------
reinit: System Name: Water molecules MD
reinit: -----------------------------------------------------------------------
reinit: System Label: anneal_pt
reinit: -----------------------------------------------------------------------

initatom: Reading input for the pseudopotentials and atomic orbitals ----------
Species number:   1 Atomic number:    8 Label: O
Species number:   2 Atomic number:    1 Label: H

Ground state valence configuration (from tables):   2s02  2p04  3d00  4f00
Ground state valence configuration (from tables):   1s01  2p00  3d00  4f00

---- Processing specs for species: O
Reading pseudopotential information in formatted form from:
  /home/fnpedron/Siesta/siesta-dev/Tests/Pseudos/O.psf

---- Processing specs for species: H
Reading pseudopotential information in formatted form from:
  /home/fnpedron/Siesta/siesta-dev/Tests/Pseudos/H.psf

---- Pseudopotential check for O 

Pseudized shells:
2s( 2.00) rc: 1.14
2p( 4.00) rc: 1.14
3d( 0.00) rc: 1.14
4f( 0.00) rc: 1.14
Valence configuration for ps generation: (assumed as above)

---- Pseudopotential check for H 

Pseudized shells:
1s( 1.00) rc: 1.25
2p( 0.00) rc: 1.25
3d( 0.00) rc: 1.25
4f( 0.00) rc: 1.25
Valence configuration for ps generation: (assumed as above)
For O, standard SIESTA heuristics set lmxkb to 2
 (one more than the basis l, including polarization orbitals).
Use PS.lmax or PS.KBprojectors blocks to override.
For H, standard SIESTA heuristics set lmxkb to 1
 (one more than the basis l, including polarization orbitals).
Use PS.lmax or PS.KBprojectors blocks to override.

<basis_specs>
===============================================================================
O                    Z=   8    Mass=  15.999        Charge= 0.17977+309
Lmxo=1 Lmxkb= 2    BasisType=split      Semic=F
L=0  Nsemic=0  Cnfigmx=2
          i=1  nzeta=1  polorb=0  (2s)
            splnorm:   0.15000    
               vcte:    40.000    
               rinn:  -0.90000    
               qcoe:    0.0000    
               qyuk:    0.0000    
               qwid:   0.10000E-01
                rcs:    0.0000    
            lambdas:    1.0000    
L=1  Nsemic=0  Cnfigmx=2
          i=1  nzeta=1  polorb=0  (2p)
            splnorm:   0.15000    
               vcte:    40.000    
               rinn:  -0.90000    
               qcoe:    0.0000    
               qyuk:    0.0000    
               qwid:   0.10000E-01
                rcs:    0.0000    
            lambdas:    1.0000    
-------------------------------------------------------------------------------
L=0  Nkbl=1  erefs: 0.17977+309
L=1  Nkbl=1  erefs: 0.17977+309
L=2  Nkbl=1  erefs: 0.17977+309
===============================================================================
</basis_specs>

Using PAO.SplitTailNorm
atom: Called for O                     (Z =   8)
Maximum radius (at nrval) set to   50.00000 8518

read_vps: Pseudopotential generation method:
read_vps: ATM3      Troullier-Martins                       
Valence charge in pseudo generation:    6.00000

xc_check: Exchange-correlation functional:
xc_check: Ceperley-Alder
V l=0 = -2*Zval/r beyond r=  1.1366
V l=1 = -2*Zval/r beyond r=  1.1332
V l=2 = -2*Zval/r beyond r=  1.1298
All V_l potentials equal beyond r=  1.1355
This should be close to max(r_c) in ps generation
All pots = -2*Zval/r beyond r=  1.1366
Using small-core scheme (local charge) for Vlocal

VLOCAL_FROM_CHLOCAL: 99.0% of the norm of Vloc inside     33.667 Ry
VLOCAL_FROM_CHLOCAL: 99.9% of the norm of Vloc inside     76.727 Ry
atom: Maximum radius for chlocal:    1.37241
atom: Maximum radius for r*vlocal+2*Zval:    1.25469

KBgen: Kleinman-Bylander projectors: 
GHOST: No ghost state for L =  0
   l= 0   rc=  1.293209   el= -1.742414   Ekb=  9.076872   kbcos=  0.325320
GHOST: No ghost state for L =  1
   l= 1   rc=  1.284119   el= -0.676589   Ekb= -8.194485   kbcos= -0.396010
GHOST: No ghost state for L =  2
   l= 2   rc=  1.433152   el=  0.013307   Ekb= -2.071665   kbcos= -0.003690

KBgen: Total number of Kleinman-Bylander projectors:   9
atom: -------------------------------------------------------------------------

atom: SANKEY-TYPE ORBITALS:

SPLIT: Orbitals with angular momentum L= 0

SPLIT: Basis orbitals for state 2s

SPLIT: PAO cut-off radius determined from an
SPLIT: energy shift=  0.010000 Ry
Split based on tail norm

   izeta = 1
                 lambda =    1.000000
                     rc =    3.560943
                 energy =   -1.731321
                kinetic =    1.587329
    potential(screened) =   -3.318651
       potential(ionic) =  -11.260325

SPLIT: Orbitals with angular momentum L= 1

SPLIT: Basis orbitals for state 2p

SPLIT: PAO cut-off radius determined from an
SPLIT: energy shift=  0.010000 Ry
Split based on tail norm

   izeta = 1
                 lambda =    1.000000
                     rc =    4.290924
                 energy =   -0.665565
                kinetic =    4.934810
    potential(screened) =   -5.600376
       potential(ionic) =  -13.346429
atom: Total number of Sankey-type orbitals:  4

atm_pop: Valence configuration (for local Pseudopot. screening):
 2s( 2.00)                                                            
 2p( 4.00)                                                            
Vna: chval, zval:    6.00000   6.00000

Vna:  Cut-off radius for the neutral-atom potential:   4.290924

atom: _________________________________________________________________________

<basis_specs>
===============================================================================
H                    Z=   1    Mass=  1.0080        Charge= 0.17977+309
Lmxo=0 Lmxkb= 1    BasisType=split      Semic=F
L=0  Nsemic=0  Cnfigmx=1
          i=1  nzeta=1  polorb=0  (1s)
            splnorm:   0.15000    
               vcte:    40.000    
               rinn:  -0.90000    
               qcoe:    0.0000    
               qyuk:    0.0000    
               qwid:   0.10000E-01
                rcs:    0.0000    
            lambdas:    1.0000    
-------------------------------------------------------------------------------
L=0  Nkbl=1  erefs: 0.17977+309
L=1  Nkbl=1  erefs: 0.17977+309
===============================================================================
</basis_specs>

Using PAO.SplitTailNorm
atom: Called for H                     (Z =   1)
Maximum radius (at nrval) set to   50.00000 8518

read_vps: Pseudopotential generation method:
read_vps: ATM3      Troullier-Martins                       
Valence charge in pseudo generation:    1.00000

xc_check: Exchange-correlation functional:
xc_check: Ceperley-Alder
V l=0 = -2*Zval/r beyond r=  1.2384
V l=1 = -2*Zval/r beyond r=  1.2321
All V_l potentials equal beyond r=  1.2371
This should be close to max(r_c) in ps generation
All pots = -2*Zval/r beyond r=  1.2384
Using small-core scheme (local charge) for Vlocal

VLOCAL_FROM_CHLOCAL: 99.0% of the norm of Vloc inside     28.363 Ry
VLOCAL_FROM_CHLOCAL: 99.9% of the norm of Vloc inside     64.639 Ry
atom: Maximum radius for chlocal:    1.44620
atom: Maximum radius for r*vlocal+2*Zval:    1.31026

KBgen: Kleinman-Bylander projectors: 
GHOST: No ghost state for L =  0
   l= 0   rc=  1.364142   el= -0.467325   Ekb= -2.009475   kbcos= -0.336680
GHOST: No ghost state for L =  1
   l= 1   rc=  1.430269   el=  0.007562   Ekb= -0.503817   kbcos= -0.022554

KBgen: Total number of Kleinman-Bylander projectors:   4
atom: -------------------------------------------------------------------------

atom: SANKEY-TYPE ORBITALS:

SPLIT: Orbitals with angular momentum L= 0

SPLIT: Basis orbitals for state 1s

SPLIT: PAO cut-off radius determined from an
SPLIT: energy shift=  0.010000 Ry
Split based on tail norm

   izeta = 1
                 lambda =    1.000000
                     rc =    5.285354
                 energy =   -0.456120
                kinetic =    0.900445
    potential(screened) =   -1.356565
       potential(ionic) =   -1.890080
atom: Total number of Sankey-type orbitals:  1

atm_pop: Valence configuration (for local Pseudopot. screening):
 1s( 1.00)                                                            
Vna: chval, zval:    1.00000   1.00000

Vna:  Cut-off radius for the neutral-atom potential:   5.285354

atom: _________________________________________________________________________

prinput: Basis input 

PAO.BasisType split     

%block ChemicalSpeciesLabel
    1    8 O                       # Species index, atomic number, species label
    2    1 H                       # Species index, atomic number, species label
%endblock ChemicalSpeciesLabel

%block PAO.Basis                 # Define Basis set
# WARNING: This information might be incomplete!
O                     2                    # Species label, number of l-shells
 n=2   0   1                         # n, l, Nzeta 
   3.561   
   1.000   
 n=2   1   1                         # n, l, Nzeta 
   4.291   
   1.000   
H                     1                    # Species label, number of l-shells
 n=1   0   1                         # n, l, Nzeta 
   5.285   
   1.000   
%endblock PAO.Basis

prinput: ----------------------------------------------------------------------

Dumping basis to NetCDF file O.ion.nc
Dumping basis to NetCDF file H.ion.nc
coor:   Atomic-coordinates input format  =     Cartesian coordinates
coor:                                          (in Angstroms)

siesta: WARNING: XV file not found

siesta: Atomic coordinates (Bohr) and species
siesta:      0.00000   0.00000   0.00000  1        1
siesta:      1.43052   1.10738   0.00000  2        2
siesta:     -1.43052   1.10738   0.00000  2        3
siesta:      0.00000   0.00000   5.66918  1        4
siesta:      1.43052  -1.10738   5.66918  2        5
siesta:     -1.43052  -1.10738   5.66918  2        6

siesta: System type = chain     

initatomlists: Number of atoms, orbitals, and projectors:      6    12    34

siesta: ******************** Simulation parameters ****************************
siesta:
siesta: The following are some of the parameters of the simulation.
siesta: A complete list of the parameters used, including default values,
siesta: can be found in file out.fdf
siesta:
redata: Spin configuration                          = none
redata: Number of spin components                   = 1
redata: Time-Reversal Symmetry                      = T
redata: Spin spiral                                 = F
redata: Long output                                 =   F
redata: Number of Atomic Species                    =        2
redata: Charge density info will appear in .RHO file
redata: Write Mulliken Pop.                         = NO
redata: Matel table size (NRTAB)                    =     1024
redata: Mesh Cutoff                                 =   100.0000 Ry
redata: Net charge of the system                    =     0.0000 |e|
redata: Min. number of SCF Iter                     =        0
redata: Max. number of SCF Iter                     =     1000
redata: SCF convergence failure will abort job
redata: SCF mix quantity                            = Hamiltonian
redata: Mix DM or H after convergence               =   F
redata: Recompute H after scf cycle                 =   F
redata: Mix DM in first SCF step                    =   T
redata: Write Pulay info on disk                    =   F
redata: New DM Occupancy tolerance                  = 0.000000000001
redata: No kicks to SCF
redata: DM Mixing Weight for Kicks                  =     0.5000
redata: Require Harris convergence for SCF          =   F
redata: Harris energy tolerance for SCF             =     0.000100 eV
redata: Require DM convergence for SCF              =   T
redata: DM tolerance for SCF                        =     0.000100
redata: Require EDM convergence for SCF             =   F
redata: EDM tolerance for SCF                       =     0.001000 eV
redata: Require H convergence for SCF               =   T
redata: Hamiltonian tolerance for SCF               =     0.001000 eV
redata: Require (free) Energy convergence for SCF   =   F
redata: (free) Energy tolerance for SCF             =     0.000100 eV
redata: Using DFT-D3 dispersion                     =   F
redata: Using Saved Data (generic)                  =   F
redata: Use continuation files for DM               =   T
redata: Neglect nonoverlap interactions             =   F
redata: Method of Calculation                       = Diagonalization
redata: Electronic Temperature                      =   299.9863 K
redata: Fix the spin of the system                  =   F
redata: Max. number of TDED Iter                    =        1
redata: Number of TDED substeps                     =        3
redata: Dynamics option                             = Annealing MD run
redata: Initial MD time step                        =        1
redata:   Final MD time step                        =       10
redata: Length of MD time step                      =     1.0000 fs
redata: Initial Temperature of MD run               =   100.0000 K
redata: Annealing Option                            = Temperature and Pressure
redata: Target Temperature                          =   600.0000 Kelvin
redata: Target Pressure                             =     0.0624 eV/Ang**3
redata: Annealing Relaxation Time                   =    25.0000 fs
redata: Approx. Bulk Modulus                        =     0.6241 eV/Ang**3
mix.SCF: Pulay mixing                            = Pulay
mix.SCF:    Variant                              = stable
mix.SCF:    History steps                        = 2
mix.SCF:    Linear mixing weight                 =     0.250000
mix.SCF:    Mixing weight                        =     0.250000
mix.SCF:    SVD condition                        = 0.1000E-07
redata: Save all siesta data in one NC              =   F
redata: ***********************************************************************

%block SCF.Mixers
  Pulay
%endblock SCF.Mixers

%block SCF.Mixer.Pulay
  # Mixing method
  method pulay
  variant stable

  # Mixing options
  weight 0.2500
  weight.linear 0.2500
  history 2
%endblock SCF.Mixer.Pulay

Size of DM history Fstack: 1
Total number of electrons:    16.000000
Total ionic charge:    16.000000

* ProcessorY, Blocksize:    2   3


* Orbital distribution balance (max,min):     3     3


siesta: k-grid: Number of k-points = 1
siesta: k-point is Gamma-only

diag: Algorithm                                     = D&C
diag: Parallel over k                               =   F
diag: Use parallel 2D distribution                  =   T
diag: Parallel block-size                           = 3
diag: Parallel distribution                         =     2 x     2
diag: Used triangular part                          = Lower
diag: Absolute tolerance                            =  0.100E-15
diag: Orthogonalization factor                      =  0.100E-05
diag: Memory factor                                 =  1.0000


ts: **************************************************************
ts: Save H and S matrices                           =    F
ts: Save DM and EDM matrices                        =    F
ts: Only save the overlap matrix S                  =    F
ts: **************************************************************

************************ Begin: TS CHECKS AND WARNINGS ************************
************************ End: TS CHECKS AND WARNINGS **************************


                     ====================================
                        Begin MD step =      1
                     ====================================

outcoor: Atomic coordinates (Ang):                          
    0.00000000    0.00000000    0.00000000   1       1  O
    0.75700000    0.58600000    0.00000000   2       2  H
   -0.75700000    0.58600000    0.00000000   2       3  H
    0.00000000    0.00000000    3.00000000   1       4  O
    0.75700000   -0.58600000    3.00000000   2       5  H
   -0.75700000   -0.58600000    3.00000000   2       6  H

outcell: Unit cell vectors (Ang):
       10.000000    0.000000    0.000000
        0.000000   10.000000    0.000000
        0.000000    0.000000    8.000000

outcell: Cell vector modules (Ang)   :   10.000000   10.000000    8.000000
outcell: Cell angles (23,13,12) (deg):     90.0000     90.0000     90.0000
outcell: Cell volume (Ang**3)        :    800.0000
Gamma-point calculation with multiply-connected orbital pairs
Folding of H and S implicitly performed
<dSpData1D:S at geom step 1
  <sparsity:sparsity for geom step 1
    nrows_g=12 nrows=3 sparsity=.2500 nnzs=36, refcount: 7>
  <dData1D:(new from dSpData1D) n=36, refcount: 1>
refcount: 1>
new_DM -- step:     1
Initializing Density Matrix...

Attempting to read DM from file... Failed...
DM filled with atomic data:
<dSpData2D:DM initialized from atoms
  <sparsity:sparsity for geom step 1
    nrows_g=12 nrows=3 sparsity=.2500 nnzs=36, refcount: 8>
  <dData2D:DM n=36 m=1, refcount: 1>
refcount: 1>
No. of atoms with KB's overlaping orbs in proc 0. Max # of overlaps:       4      11

InitMesh: MESH = 64 x 64 x 50 = 204800
InitMesh: Mesh cutoff (required, used) =   100.000   107.960 Ry
New grid distribution [1]: sub = 2
New grid distribution [2]: sub = 2
New grid distribution [3]: sub = 2
Setting up quadratic distribution...

stepf: Fermi-Dirac step function

siesta: Program's energy decomposition (eV):
siesta: Ebs     =      -150.860226
siesta: Eions   =      1621.026762
siesta: Ena     =       348.311589
siesta: Ekin    =       762.029177
siesta: Enl     =      -142.322504
siesta: Eso     =         0.000000
siesta: Edftu   =         0.000000
siesta: DEna    =       -43.394775
siesta: DUscf   =         8.145612
siesta: DUext   =         0.000000
siesta: Ex      =      -208.215598
siesta: Ec      =       -25.484600
siesta: Exc     =      -233.700198
siesta: EbV     =         0.000000
siesta: eta*DQ  =         0.000000
siesta: Emadel  =         0.000000
siesta: Emeta   =         0.000000
siesta: Emolmec =         0.000000
siesta: Ekinion =         0.000000
siesta: Eharris =      -912.757638
siesta: Etot    =      -921.957860
siesta: FreeEng =      -921.957860

        iscf     Eharris(eV)        E_KS(eV)     FreeEng(eV)     dDmax    Ef(eV) dHmax(eV)
   scf:    1     -912.757638     -921.957860     -921.957860  0.733417 -3.359648  7.697499
timer: Routine,Calls,Time,% = IterSCF        1       0.009   7.64
   scf:    2     -925.019859     -923.619429     -923.619429  0.139222 -2.405659  4.176372
   scf:    3     -924.515320     -924.243189     -924.243189  0.153954 -1.356709  0.720183
   scf:    4     -924.257341     -924.250596     -924.250596  0.006996 -1.425281  0.533465
   scf:    5     -924.260059     -924.255895     -924.255895  0.015005 -1.528642  0.167600
   scf:    6     -924.256792     -924.256358     -924.256358  0.004055 -1.533824  0.094733
   scf:    7     -924.256616     -924.256507     -924.256507  0.002845 -1.530644  0.020744
   scf:    8     -924.256536     -924.256523     -924.256523  0.000334 -1.526977  0.014933
   scf:    9     -924.256536     -924.256531     -924.256531  0.000297 -1.523110  0.009254
   scf:   10     -924.256533     -924.256532     -924.256532  0.000152 -1.522419  0.005779
   scf:   11     -924.256533     -924.256533     -924.256533  0.000228 -1.521732  0.001906
   scf:   12     -924.256533     -924.256533     -924.256533  0.000028 -1.521803  0.001144
   scf:   13     -924.256533     -924.256533     -924.256533  0.000017 -1.521890  0.000403

SCF Convergence by DM+H criterion
max |DM_out - DM_in|         :     0.0000168156
max |H_out - H_in|      (eV) :     0.0004032171
SCF cycle converged after 13 iterations

Using DM_out to compute the final energy and forces
No. of atoms with KB's overlaping orbs in proc 0. Max # of overlaps:       4      11

siesta: E_KS(eV) =             -924.2565

siesta: E_KS - E_eggbox =      -924.2565

siesta: Atomic forces (eV/Ang):
     1    0.000000   -7.298057   -0.083748
     2    4.939654    3.545499    0.122935
     3   -4.939654    3.545499    0.122935
     4    0.000000    7.275470    0.989242
     5    4.938269   -3.544015   -0.118804
     6   -4.938269   -3.544015   -0.118804
----------------------------------------
   Tot    0.000000   -0.019620    0.913758
----------------------------------------
   Max    7.298057
   Res    3.764400    sqrt( Sum f_i^2 / 3N )
----------------------------------------
   Max    7.298057    constrained

Stress tensor Voigt[x,y,z,yz,xz,xy] (kbar):      -29.95      -17.06        0.47       -0.61        0.03        0.06
(Free)E + p*V (eV/cell)     -916.5110
Target enthalpy (eV/cell)     -874.3245

siesta: Stress tensor (static) (eV/Ang**3):
        -0.018671   -0.000000    0.000000
        -0.000000   -0.010591   -0.000359
        -0.000000   -0.000359    0.000377

siesta: Pressure (static):         15.42593083  kBar

siesta: Stress tensor (total) (eV/Ang**3):
        -0.018696    0.000036    0.000020
         0.000036   -0.010646   -0.000381
         0.000020   -0.000381    0.000296

siesta: Pressure (total):         15.51222139  kBar
 Anneal: Kinetic Energy=    4.7502173451835529E-003
 Anneal: Velocity scale factor =    1.0954451150103315     
Anneal: Cell scale factor = 
           0.9971985    -0.0000028    -0.0000015
          -0.0000028     0.9966829     0.0000247
          -0.0000015     0.0000247     0.9959820

siesta: Temp_ion =     120.000 K

                     ====================================
                        Begin MD step =      2
                     ====================================

outcoor: Atomic coordinates (Ang):                          
    0.00211942   -0.00604916   -0.00099384   1       1  O
    0.77472894    0.60651416   -0.00097840   2       2  H
   -0.77469268    0.59686256   -0.00831537   2       3  H
   -0.00100685    0.00474188    2.98918140   1       4  O
    0.77071175   -0.59066637    2.97406107   2       5  H
   -0.78848934   -0.59073101    3.01164635   2       6  H

outcell: Unit cell vectors (Ang):
        9.971985   -0.000028   -0.000015
       -0.000028    9.966829    0.000247
       -0.000012    0.000198    7.967856

outcell: Cell vector modules (Ang)   :    9.971985    9.966829    7.967856
outcell: Cell angles (23,13,12) (deg):     89.9972     90.0002     90.0003
outcell: Cell volume (Ang**3)        :    791.9177
Gamma-point calculation with multiply-connected orbital pairs
Folding of H and S implicitly performed
<dSpData1D:S at geom step 2
  <sparsity:sparsity for geom step 2
    nrows_g=12 nrows=3 sparsity=.2500 nnzs=36, refcount: 7>
  <dData1D:(new from dSpData1D) n=36, refcount: 1>
refcount: 1>
new_DM -- step:     2
Re-using DM from previous geometries...
Number of DMs in history: 1
 DM extrapolation coefficients: 
1   1.00000
New DM after history re-use:
<dSpData2D:SpM extrapolated using coords
  <sparsity:sparsity for geom step 2
    nrows_g=12 nrows=3 sparsity=.2500 nnzs=36, refcount: 9>
  <dData2D:(temp array for extrapolation) n=36 m=1, refcount: 1>
refcount: 1>
No. of atoms with KB's overlaping orbs in proc 0. Max # of overlaps:       4      11

InitMesh: MESH = 60 x 60 x 48 = 172800
InitMesh: Mesh cutoff (required, used) =   100.000   100.056 Ry
New grid distribution [1]: sub = 2
New grid distribution [2]: sub = 2
New grid distribution [3]: sub = 2
Setting up quadratic distribution...

        iscf     Eharris(eV)        E_KS(eV)     FreeEng(eV)     dDmax    Ef(eV) dHmax(eV)
   scf:    1     -925.271565     -924.834858     -924.834858  0.061754 -1.709432  0.552941
   scf:    2     -924.790961     -924.830606     -924.830606  0.044874 -2.003322  0.684719
   scf:    3     -924.858100     -924.849483     -924.849483  0.024284 -1.841970  0.034852
   scf:    4     -924.849522     -924.849503     -924.849503  0.000555 -1.839779  0.025640
   scf:    5     -924.849544     -924.849525     -924.849525  0.001412 -1.835114  0.002949
   scf:    6     -924.849526     -924.849525     -924.849525  0.000112 -1.835091  0.001305
   scf:    7     -924.849526     -924.849526     -924.849526  0.000076 -1.835081  0.000422

SCF Convergence by DM+H criterion
max |DM_out - DM_in|         :     0.0000758992
max |H_out - H_in|      (eV) :     0.0004223349
SCF cycle converged after 7 iterations

Using DM_out to compute the final energy and forces
No. of atoms with KB's overlaping orbs in proc 0. Max # of overlaps:       4      11

siesta: E_KS(eV) =             -924.8495

siesta: Atomic forces (eV/Ang):
     1    0.166362   -5.405001   -0.003706
     2    3.485560    2.615609    0.120687
     3   -3.647682    2.682296    0.087670
     4   -0.635403    5.667118    0.008767
     5    3.954869   -3.036072   -0.205094
     6   -3.322715   -2.495747   -0.019911
----------------------------------------
   Tot    0.000991    0.028204   -0.011588
----------------------------------------
   Max    5.667118
   Res    2.822973    sqrt( Sum f_i^2 / 3N )
----------------------------------------
   Max    5.667118    constrained

Stress tensor Voigt[x,y,z,yz,xz,xy] (kbar):      -22.73      -13.81       -0.25       -0.57        0.28        0.96
(Free)E + p*V (eV/cell)     -918.7884
Target enthalpy (eV/cell)     -875.4219

siesta: Stress tensor (static) (eV/Ang**3):
        -0.014157    0.000556    0.000150
         0.000557   -0.008554   -0.000327
         0.000150   -0.000327   -0.000056

siesta: Pressure (static):         12.15867073  kBar

siesta: Stress tensor (total) (eV/Ang**3):
        -0.014188    0.000599    0.000174
         0.000600   -0.008619   -0.000353
         0.000174   -0.000353   -0.000154

siesta: Pressure (total):         12.26252847  kBar
 Anneal: Kinetic Energy=    4.4626423733914518E-002
 Anneal: Velocity scale factor =   0.99274698304984421     
Anneal: Cell scale factor = 
           0.9969612    -0.0000346    -0.0000218
          -0.0000346     0.9965836     0.0000201
          -0.0000218     0.0000201     0.9960108

siesta: Temp_ion =     925.882 K

                     ====================================
                        Begin MD step =      3
                     ====================================

outcoor: Atomic coordinates (Ang):                          
    0.00429517   -0.01519462   -0.00196799   1       1  O
    0.82487699    0.65124209   -0.00081054   2       2  H
   -0.82638219    0.63282881   -0.01559898   2       3  H
   -0.00243338    0.01275166    2.97847525   1       4  O
    0.82135236   -0.62393193    2.94661181   2       5  H
   -0.85063515   -0.61888746    3.02272652   2       6  H

outcell: Unit cell vectors (Ang):
        9.941682   -0.000372   -0.000233
       -0.000373    9.932778    0.000446
       -0.000186    0.000357    7.936071

outcell: Cell vector modules (Ang)   :    9.941682    9.932778    7.936071
outcell: Cell angles (23,13,12) (deg):     89.9948     90.0027     90.0043
outcell: Cell volume (Ang**3)        :    783.6753
Gamma-point calculation with multiply-connected orbital pairs
Folding of H and S implicitly performed
<dSpData1D:S at geom step 3
  <sparsity:sparsity for geom step 3
    nrows_g=12 nrows=3 sparsity=.2500 nnzs=36, refcount: 7>
  <dData1D:(new from dSpData1D) n=36, refcount: 1>
refcount: 1>
new_DM -- step:     3
Re-using DM from previous geometries...
Number of DMs in history: 1
 DM extrapolation coefficients: 
1   1.00000
New DM after history re-use:
<dSpData2D:SpM extrapolated using coords
  <sparsity:sparsity for geom step 3
    nrows_g=12 nrows=3 sparsity=.2500 nnzs=36, refcount: 9>
  <dData2D:(temp array for extrapolation) n=36 m=1, refcount: 1>
refcount: 1>
Note: For starting DM, Qtot, Tr[D*S] =         16.00000000         15.96791531
No. of atoms with KB's overlaping orbs in proc 0. Max # of overlaps:       4      11

InitMesh: MESH = 60 x 60 x 48 = 172800
InitMesh: Mesh cutoff (required, used) =   100.000   100.666 Ry
New grid distribution [1]: sub = 2
New grid distribution [2]: sub = 2
New grid distribution [3]: sub = 2
Setting up quadratic distribution...

        iscf     Eharris(eV)        E_KS(eV)     FreeEng(eV)     dDmax    Ef(eV) dHmax(eV)
   scf:    1     -926.330316     -925.466989     -925.466989  0.163602 -2.314249  1.653713
   scf:    2     -924.721657     -925.339305     -925.339305  0.153017 -3.223315  2.412098
   scf:    3     -925.741124     -925.620849     -925.620849  0.084825 -2.686186  0.096453
   scf:    4     -925.621126     -925.620997     -925.620997  0.001343 -2.672846  0.072187
   scf:    5     -925.621267     -925.621136     -925.621136  0.002624 -2.659001  0.030050
   scf:    6     -925.621208     -925.621174     -925.621174  0.001590 -2.653653  0.007008
   scf:    7     -925.621181     -925.621178     -925.621178  0.000444 -2.652802  0.002212
   scf:    8     -925.621178     -925.621178     -925.621178  0.000080 -2.652855  0.000812

SCF Convergence by DM+H criterion
max |DM_out - DM_in|         :     0.0000796911
max |H_out - H_in|      (eV) :     0.0008115822
SCF cycle converged after 8 iterations

Using DM_out to compute the final energy and forces
No. of atoms with KB's overlaping orbs in proc 0. Max # of overlaps:       4      11

siesta: E_KS(eV) =             -925.6212

siesta: Atomic forces (eV/Ang):
     1    0.149394   -1.738169    0.034521
     2    0.785600    0.848284    0.107719
     3   -0.925080    0.925813    0.094794
     4   -0.586512    2.158998   -0.028991
     5    1.132126   -1.320038   -0.162546
     6   -0.554431   -0.842089   -0.067269
----------------------------------------
   Tot    0.001098    0.032799   -0.021772
----------------------------------------
   Max    2.158998
   Res    0.918718    sqrt( Sum f_i^2 / 3N )
----------------------------------------
   Max    2.158998    constrained

Stress tensor Voigt[x,y,z,yz,xz,xy] (kbar):       -7.13       -6.49       -0.38       -0.54        0.45        0.89
(Free)E + p*V (eV/cell)     -923.3379
Target enthalpy (eV/cell)     -876.7080

siesta: Stress tensor (static) (eV/Ang**3):
        -0.003604    0.000570    0.000089
         0.000571   -0.003497   -0.000349
         0.000089   -0.000349   -0.000122

siesta: Pressure (static):          3.85769615  kBar

siesta: Stress tensor (total) (eV/Ang**3):
        -0.004451    0.000554    0.000280
         0.000554   -0.004053   -0.000336
         0.000280   -0.000337   -0.000236

siesta: Pressure (total):          4.66800370  kBar
 Anneal: Kinetic Energy=    9.7759911042302070E-002
 Anneal: Velocity scale factor =   0.98572904761992031     
Anneal: Cell scale factor = 
           0.9963523    -0.0000390    -0.0000232
          -0.0000391     0.9963068     0.0000220
          -0.0000232     0.0000220     0.9960149

siesta: Temp_ion =    1999.689 K

                     ====================================
                        Begin MD step =      4
                     ====================================

outcoor: Atomic coordinates (Ang):                          
    0.00648099   -0.02503982   -0.00288667   1       1  O
    0.88006401    0.70209904    0.00036322   2       2  H
   -0.88438024    0.67598740   -0.02171806   2       3  H
   -0.00416226    0.02175885    2.96776782   1       4  O
    0.88028333   -0.66818865    2.91825422   2       5  H
   -0.91521667   -0.65370515    3.03239583   2       6  H

outcell: Unit cell vectors (Ang):
        9.905418   -0.000759   -0.000462
       -0.000759    9.896095    0.000663
       -0.000369    0.000531    7.904445

outcell: Cell vector modules (Ang)   :    9.905418    9.896095    7.904445
outcell: Cell angles (23,13,12) (deg):     89.9923     90.0054     90.0088
outcell: Cell volume (Ang**3)        :    774.8329
Gamma-point calculation with multiply-connected orbital pairs
Folding of H and S implicitly performed
<dSpData1D:S at geom step 4
  <sparsity:sparsity for geom step 4
    nrows_g=12 nrows=3 sparsity=.2500 nnzs=36, refcount: 7>
  <dData1D:(new from dSpData1D) n=36, refcount: 1>
refcount: 1>
new_DM -- step:     4
Re-using DM from previous geometries...
Number of DMs in history: 1
 DM extrapolation coefficients: 
1   1.00000
New DM after history re-use:
<dSpData2D:SpM extrapolated using coords
  <sparsity:sparsity for geom step 4
    nrows_g=12 nrows=3 sparsity=.2500 nnzs=36, refcount: 9>
  <dData2D:(temp array for extrapolation) n=36 m=1, refcount: 1>
refcount: 1>
Note: For starting DM, Qtot, Tr[D*S] =         16.00000000         15.94953421
No. of atoms with KB's overlaping orbs in proc 0. Max # of overlaps:       4      11

InitMesh: MESH = 60 x 60 x 48 = 172800
InitMesh: Mesh cutoff (required, used) =   100.000   101.405 Ry
New grid distribution [1]: sub = 2
New grid distribution [2]: sub = 2
New grid distribution [3]: sub = 2
Setting up quadratic distribution...

        iscf     Eharris(eV)        E_KS(eV)     FreeEng(eV)     dDmax    Ef(eV) dHmax(eV)
   scf:    1     -925.948387     -925.335772     -925.335772  0.193299 -3.136140  2.131279
   scf:    2     -923.148644     -924.858402     -924.858402  0.238423 -4.287318  3.793837
   scf:    3     -925.921069     -925.621775     -925.621775  0.141203 -3.554290  0.126901
   scf:    4     -925.622571     -925.622254     -925.622254  0.002321 -3.529517  0.097072
   scf:    5     -925.622796     -925.622532     -925.622532  0.002660 -3.515742  0.054941
   scf:    6     -925.622789     -925.622671     -925.622671  0.003256 -3.502092  0.005702
   scf:    7     -925.622676     -925.622674     -925.622674  0.000365 -3.501236  0.001904
   scf:    8     -925.622674     -925.622674     -925.622674  0.000088 -3.501099  0.000659

SCF Convergence by DM+H criterion
max |DM_out - DM_in|         :     0.0000875247
max |H_out - H_in|      (eV) :     0.0006591487
SCF cycle converged after 8 iterations

Using DM_out to compute the final energy and forces
No. of atoms with KB's overlaping orbs in proc 0. Max # of overlaps:       4      11

siesta: E_KS(eV) =             -925.6227

siesta: Atomic forces (eV/Ang):
     1    0.068034    1.000876    0.057716
     2   -1.113147   -0.485762    0.087090
     3    1.060371   -0.406471    0.118653
     4   -0.310922   -0.480518   -0.071608
     5   -1.053398    0.092280   -0.048935
     6    1.351083    0.296365   -0.173905
----------------------------------------
   Tot    0.002021    0.016771   -0.030989
----------------------------------------
   Max    1.351083
   Res    0.632139    sqrt( Sum f_i^2 / 3N )
----------------------------------------
   Max    1.351083    constrained

Stress tensor Voigt[x,y,z,yz,xz,xy] (kbar):        5.37       -0.48       -0.46       -0.59        0.27        0.58
(Free)E + p*V (eV/cell)     -926.3371
Target enthalpy (eV/cell)     -877.2614

siesta: Stress tensor (static) (eV/Ang**3):
         0.005256    0.000325   -0.000106
         0.000325    0.000995   -0.000373
        -0.000106   -0.000373   -0.000173

siesta: Pressure (static):         -3.24589617  kBar

siesta: Stress tensor (total) (eV/Ang**3):
         0.003354    0.000364    0.000168
         0.000364   -0.000301   -0.000367
         0.000168   -0.000367   -0.000287

siesta: Pressure (total):         -1.47736780  kBar
 Anneal: Kinetic Energy=    9.3784334638333619E-002
 Anneal: Velocity scale factor =   0.98597976875739712     
Anneal: Cell scale factor = 
           0.9957726    -0.0000272    -0.0000091
          -0.0000272     0.9960252     0.0000253
          -0.0000091     0.0000253     0.9960176

siesta: Temp_ion =    1919.344 K

                     ====================================
                        Begin MD step =      5
                     ====================================

outcoor: Atomic coordinates (Ang):                          
    0.00862494   -0.03393308   -0.00373846   1       1  O
    0.92221152    0.74631099    0.00232870   2       2  H
   -0.92972295    0.71351770   -0.02650559   2       3  H
   -0.00597136    0.03016480    2.95703208   1       4  O
    0.92663372   -0.70972463    2.89009295   2       5  H
   -0.96412352   -0.68423367    3.03969273   2       6  H

outcell: Unit cell vectors (Ang):
        9.863544   -0.001026   -0.000551
       -0.001025    9.856760    0.000911
       -0.000440    0.000728    7.872967

outcell: Cell vector modules (Ang)   :    9.863544    9.856760    7.872967
outcell: Cell angles (23,13,12) (deg):     89.9894     90.0064     90.0119
outcell: Cell volume (Ang**3)        :    765.4302
Gamma-point calculation with multiply-connected orbital pairs
Folding of H and S implicitly performed
<dSpData1D:S at geom step 5
  <sparsity:sparsity for geom step 5
    nrows_g=12 nrows=3 sparsity=.2500 nnzs=36, refcount: 7>
  <dData1D:(new from dSpData1D) n=36, refcount: 1>
refcount: 1>
new_DM -- step:     5
Re-using DM from previous geometries...
Number of DMs in history: 1
 DM extrapolation coefficients: 
1   1.00000
New DM after history re-use:
<dSpData2D:SpM extrapolated using coords
  <sparsity:sparsity for geom step 5
    nrows_g=12 nrows=3 sparsity=.2500 nnzs=36, refcount: 9>
  <dData2D:(temp array for extrapolation) n=36 m=1, refcount: 1>
refcount: 1>
Note: For starting DM, Qtot, Tr[D*S] =         16.00000000         15.94872319
No. of atoms with KB's overlaping orbs in proc 0. Max # of overlaps:       4      11

InitMesh: MESH = 60 x 60 x 48 = 172800
InitMesh: Mesh cutoff (required, used) =   100.000   102.268 Ry
New grid distribution [1]: sub = 2
New grid distribution [2]: sub = 2
New grid distribution [3]: sub = 2
Setting up quadratic distribution...

        iscf     Eharris(eV)        E_KS(eV)     FreeEng(eV)     dDmax    Ef(eV) dHmax(eV)
   scf:    1     -925.282629     -924.916833     -924.916833  0.161146 -2.327471  1.924343
   scf:    2     -922.163780     -924.244360     -924.244360  0.246033 -4.886392  4.020207
   scf:    3     -925.499424     -925.168766     -925.168766  0.155620 -2.656023  0.121332
   scf:    4     -925.169714     -925.169349     -925.169349  0.002512 -1.100598  0.092218
   scf:    5     -925.169917     -925.169640     -925.169640  0.002418 -1.089988  0.053004
   scf:    6     -925.169908     -925.169791     -925.169791  0.003160 -1.077621  0.002812
   scf:    7     -925.169792     -925.169791     -925.169791  0.000168 -1.077179  0.001326
   scf:    8     -925.169791     -925.169791     -925.169791  0.000039 -1.077021  0.000744

SCF Convergence by DM+H criterion
max |DM_out - DM_in|         :     0.0000391803
max |H_out - H_in|      (eV) :     0.0007437293
SCF cycle converged after 8 iterations

Using DM_out to compute the final energy and forces
No. of atoms with KB's overlaping orbs in proc 0. Max # of overlaps:       4      11

siesta: E_KS(eV) =             -925.1698

siesta: Atomic forces (eV/Ang):
     1    0.003308    2.552937    0.082521
     2   -2.064397   -1.260720    0.067687
     3    2.080324   -1.172390    0.137790
     4   -0.118665   -1.982838   -0.117408
     5   -2.195172    0.932957    0.055596
     6    2.295463    0.927751   -0.264452
----------------------------------------
   Tot    0.000861   -0.002304   -0.038267
----------------------------------------
   Max    2.552937
   Res    1.373416    sqrt( Sum f_i^2 / 3N )
----------------------------------------
   Max    2.552937    constrained

Stress tensor Voigt[x,y,z,yz,xz,xy] (kbar):       14.16        4.34       -0.47       -0.65       -0.09        0.31
(Free)E + p*V (eV/cell)     -928.0418
Target enthalpy (eV/cell)     -877.3954

siesta: Stress tensor (static) (eV/Ang**3):
         0.010555    0.000094   -0.000305
         0.000094    0.004107   -0.000381
        -0.000305   -0.000381   -0.000191

siesta: Pressure (static):         -7.72835879  kBar

siesta: Stress tensor (total) (eV/Ang**3):
         0.008840    0.000194   -0.000056
         0.000194    0.002711   -0.000403
        -0.000056   -0.000403   -0.000295

siesta: Pressure (total):         -6.01153213  kBar
 Anneal: Kinetic Energy=    5.4673608793691666E-002
 Anneal: Velocity scale factor =   0.99037970735535064     
Anneal: Cell scale factor = 
           0.9953772    -0.0000125     0.0000092
          -0.0000125     0.9957996     0.0000271
           0.0000092     0.0000271     0.9960177

siesta: Temp_ion =    1128.932 K

                     ====================================
                        Begin MD step =      6
                     ====================================

outcoor: Atomic coordinates (Ang):                          
    0.01070653   -0.04105488   -0.00451814   1       1  O
    0.94325496    0.77719121    0.00490034   2       2  H
   -0.95370127    0.73871913   -0.02987347   2       3  H
   -0.00774380    0.03715978    2.94624473   1       4  O
    0.95056165   -0.74107852    2.86296473   2       5  H
   -0.98948102   -0.70495844    3.04399498   2       6  H

outcell: Unit cell vectors (Ang):
        9.817947   -0.001145   -0.000458
       -0.001144    9.815358    0.001174
       -0.000366    0.000939    7.841615

outcell: Cell vector modules (Ang)   :    9.817947    9.815358    7.841615
outcell: Cell angles (23,13,12) (deg):     89.9863     90.0053     90.0134
outcell: Cell volume (Ang**3)        :    755.6702
Gamma-point calculation with multiply-connected orbital pairs
Folding of H and S implicitly performed
<dSpData1D:S at geom step 6
  <sparsity:sparsity for geom step 6
    nrows_g=12 nrows=3 sparsity=.2500 nnzs=36, refcount: 7>
  <dData1D:(new from dSpData1D) n=36, refcount: 1>
refcount: 1>
new_DM -- step:     6
Re-using DM from previous geometries...
Number of DMs in history: 1
 DM extrapolation coefficients: 
1   1.00000
New DM after history re-use:
<dSpData2D:SpM extrapolated using coords
  <sparsity:sparsity for geom step 6
    nrows_g=12 nrows=3 sparsity=.2500 nnzs=36, refcount: 9>
  <dData2D:(temp array for extrapolation) n=36 m=1, refcount: 1>
refcount: 1>
Note: For starting DM, Qtot, Tr[D*S] =         16.00000000         15.96390423
No. of atoms with KB's overlaping orbs in proc 0. Max # of overlaps:       4      11

InitMesh: MESH = 60 x 60 x 48 = 172800
InitMesh: Mesh cutoff (required, used) =   100.000   103.220 Ry
New grid distribution [1]: sub = 2
New grid distribution [2]: sub = 2
New grid distribution [3]: sub = 2
Setting up quadratic distribution...

        iscf     Eharris(eV)        E_KS(eV)     FreeEng(eV)     dDmax    Ef(eV) dHmax(eV)
   scf:    1     -924.931522     -924.649157     -924.649157  0.103332 -1.394997  1.262604
   scf:    2     -923.101465     -924.250082     -924.250082  0.174783 -2.028131  2.897064
   scf:    3     -924.928284     -924.761056     -924.761056  0.115755 -1.587977  0.085259
   scf:    4     -924.761517     -924.761314     -924.761314  0.001252 -1.575379  0.062923
   scf:    5     -924.761644     -924.761485     -924.761485  0.001985 -1.566097  0.030193
   scf:    6     -924.761576     -924.761536     -924.761536  0.001767 -1.558845  0.002080
   scf:    7     -924.761536     -924.761536     -924.761536  0.000113 -1.558440  0.001008
   scf:    8     -924.761536     -924.761536     -924.761536  0.000029 -1.558302  0.000529

SCF Convergence by DM+H criterion
max |DM_out - DM_in|         :     0.0000291626
max |H_out - H_in|      (eV) :     0.0005286737
SCF cycle converged after 8 iterations

Using DM_out to compute the final energy and forces
No. of atoms with KB's overlaping orbs in proc 0. Max # of overlaps:       4      11

siesta: E_KS(eV) =             -924.7615

siesta: Atomic forces (eV/Ang):
     1   -0.038673    3.328599    0.108627
     2   -2.427317   -1.661022    0.052986
     3    2.488073   -1.563304    0.149720
     4   -0.010452   -2.754222   -0.158831
     5   -2.663757    1.385687    0.129706
     6    2.652135    1.249397   -0.325366
----------------------------------------
   Tot    0.000009   -0.014865   -0.043158
----------------------------------------
   Max    3.328599
   Res    1.727999    sqrt( Sum f_i^2 / 3N )
----------------------------------------
   Max    3.328599    constrained

Stress tensor Voigt[x,y,z,yz,xz,xy] (kbar):       19.46        8.08       -0.43       -0.68       -0.47        0.04
(Free)E + p*V (eV/cell)     -929.0240
Target enthalpy (eV/cell)     -877.5963

siesta: Stress tensor (static) (eV/Ang**3):
         0.012988   -0.000078   -0.000455
        -0.000078    0.006028   -0.000380
        -0.000455   -0.000380   -0.000180

siesta: Pressure (static):        -10.05967920  kBar

siesta: Stress tensor (total) (eV/Ang**3):
         0.012147    0.000024   -0.000293
         0.000024    0.005042   -0.000422
        -0.000292   -0.000422   -0.000267

siesta: Pressure (total):         -9.03737542  kBar
 Anneal: Kinetic Energy=    1.9289181170357720E-002
 Anneal: Velocity scale factor =    1.0095064096884789     
Anneal: Cell scale factor = 
           0.9951776     0.0000005     0.0000251
           0.0000005     0.9956446     0.0000274
           0.0000251     0.0000274     0.9960158

siesta: Temp_ion =     413.827 K

                     ====================================
                        Begin MD step =      7
                     ====================================

outcoor: Atomic coordinates (Ang):                          
    0.01278229   -0.04622857   -0.00524081   1       1  O
    0.94103771    0.79234885    0.00802665   2       2  H
   -0.95384191    0.74905836   -0.03185325   2       3  H
   -0.00949146    0.04255322    2.93541346   1       4  O
    0.94900638   -0.75934394    2.83696791   2       5  H
   -0.98940091   -0.71382316    3.04537155   2       6  H

outcell: Unit cell vectors (Ang):
        9.770600   -0.001135   -0.000210
       -0.001133    9.772608    0.001438
       -0.000167    0.001149    7.810372

outcell: Cell vector modules (Ang)   :    9.770600    9.772608    7.810372
outcell: Cell angles (23,13,12) (deg):     89.9831     90.0025     90.0133
outcell: Cell volume (Ang**3)        :    745.7674
Gamma-point calculation with multiply-connected orbital pairs
Folding of H and S implicitly performed
<dSpData1D:S at geom step 7
  <sparsity:sparsity for geom step 7
    nrows_g=12 nrows=3 sparsity=.2500 nnzs=36, refcount: 7>
  <dData1D:(new from dSpData1D) n=36, refcount: 1>
refcount: 1>
new_DM -- step:     7
Re-using DM from previous geometries...
Number of DMs in history: 1
 DM extrapolation coefficients: 
1   1.00000
New DM after history re-use:
<dSpData2D:SpM extrapolated using coords
  <sparsity:sparsity for geom step 7
    nrows_g=12 nrows=3 sparsity=.2500 nnzs=36, refcount: 9>
  <dData2D:(temp array for extrapolation) n=36 m=1, refcount: 1>
refcount: 1>
No. of atoms with KB's overlaping orbs in proc 0. Max # of overlaps:       4      11

InitMesh: MESH = 60 x 60 x 48 = 172800
InitMesh: Mesh cutoff (required, used) =   100.000   104.180 Ry
New grid distribution [1]: sub = 2
New grid distribution [2]: sub = 2
New grid distribution [3]: sub = 2
Setting up quadratic distribution...

        iscf     Eharris(eV)        E_KS(eV)     FreeEng(eV)     dDmax    Ef(eV) dHmax(eV)
   scf:    1     -924.761725     -924.632888     -924.632888  0.041629 -1.666155  0.461790
   scf:    2     -924.421788     -924.577481     -924.577481  0.066724 -1.893925  1.086778
   scf:    3     -924.668207     -924.646855     -924.646855  0.045420 -1.732040  0.031647
   scf:    4     -924.646933     -924.646895     -924.646895  0.000597 -1.728402  0.022440
   scf:    5     -924.646961     -924.646931     -924.646931  0.001178 -1.722630  0.004354
   scf:    6     -924.646933     -924.646932     -924.646932  0.000259 -1.721556  0.001207
   scf:    7     -924.646932     -924.646932     -924.646932  0.000052 -1.721344  0.000573

SCF Convergence by DM+H criterion
max |DM_out - DM_in|         :     0.0000515383
max |H_out - H_in|      (eV) :     0.0005730277
SCF cycle converged after 7 iterations

Using DM_out to compute the final energy and forces
No. of atoms with KB's overlaping orbs in proc 0. Max # of overlaps:       4      11

siesta: E_KS(eV) =             -924.6469

siesta: Atomic forces (eV/Ang):
     1   -0.066072    3.622565    0.134118
     2   -2.434787   -1.819016    0.043975
     3    2.525664   -1.718077    0.155970
     4    0.068970   -3.080100   -0.195916
     5   -2.742939    1.602301    0.173861
     6    2.649168    1.371397   -0.358502
----------------------------------------
   Tot    0.000004   -0.020931   -0.046493
----------------------------------------
   Max    3.622565
   Res    1.832093    sqrt( Sum f_i^2 / 3N )
----------------------------------------
   Max    3.622565    constrained

Stress tensor Voigt[x,y,z,yz,xz,xy] (kbar):       21.06       10.42       -0.34       -0.67       -0.76       -0.24
(Free)E + p*V (eV/cell)     -929.4784
Target enthalpy (eV/cell)     -878.0998

siesta: Stress tensor (static) (eV/Ang**3):
         0.013304   -0.000218   -0.000541
        -0.000219    0.006987   -0.000372
        -0.000541   -0.000372   -0.000145

siesta: Pressure (static):        -10.75936558  kBar

siesta: Stress tensor (total) (eV/Ang**3):
         0.013147   -0.000148   -0.000477
        -0.000149    0.006502   -0.000420
        -0.000476   -0.000420   -0.000214

siesta: Pressure (total):        -10.37968598  kBar
 Anneal: Kinetic Energy=    6.7444197033491382E-003
 Anneal: Velocity scale factor =    1.0625612268812936     
Anneal: Cell scale factor = 
           0.9951516     0.0000117     0.0000361
           0.0000117     0.9955619     0.0000265
           0.0000361     0.0000265     0.9960129

siesta: Temp_ion =     160.302 K

                     ====================================
                        Begin MD step =      8
                     ====================================

outcoor: Atomic coordinates (Ang):                          
    0.01505951   -0.04970771   -0.00596415   1       1  O
    0.91445125    0.79119413    0.01196939   2       2  H
   -0.92895294    0.74351225   -0.03250804   2       3  H
   -0.01137618    0.04660937    2.92460095   1       4  O
    0.92004690   -0.76382743    2.81107651   2       5  H
   -0.96302643   -0.71016081    3.04472658   2       6  H

outcell: Unit cell vectors (Ang):
        9.723229   -0.001016    0.000144
       -0.001013    9.729236    0.001692
        0.000115    0.001351    7.779232

outcell: Cell vector modules (Ang)   :    9.723229    9.729236    7.779232
outcell: Cell angles (23,13,12) (deg):     89.9801     89.9983     90.0120
outcell: Cell volume (Ang**3)        :    735.9120
Gamma-point calculation with multiply-connected orbital pairs
Folding of H and S implicitly performed
<dSpData1D:S at geom step 8
  <sparsity:sparsity for geom step 8
    nrows_g=12 nrows=3 sparsity=.2500 nnzs=36, refcount: 7>
  <dData1D:(new from dSpData1D) n=36, refcount: 1>
refcount: 1>
new_DM -- step:     8
Re-using DM from previous geometries...
Number of DMs in history: 1
 DM extrapolation coefficients: 
1   1.00000
New DM after history re-use:
<dSpData2D:SpM extrapolated using coords
  <sparsity:sparsity for geom step 8
    nrows_g=12 nrows=3 sparsity=.2500 nnzs=36, refcount: 9>
  <dData2D:(temp array for extrapolation) n=36 m=1, refcount: 1>
refcount: 1>
No. of atoms with KB's overlaping orbs in proc 0. Max # of overlaps:       4      11

InitMesh: MESH = 60 x 60 x 48 = 172800
InitMesh: Mesh cutoff (required, used) =   100.000   105.111 Ry
New grid distribution [1]: sub = 2
New grid distribution [2]: sub = 2
New grid distribution [3]: sub = 2
Setting up quadratic distribution...

        iscf     Eharris(eV)        E_KS(eV)     FreeEng(eV)     dDmax    Ef(eV) dHmax(eV)
   scf:    1     -924.632324     -924.875629     -924.875629  0.023186 -1.627086  0.376272
   scf:    2     -924.748027     -924.842563     -924.842563  0.052116 -1.455521  0.888047
   scf:    3     -924.897385     -924.884672     -924.884672  0.036154 -1.576974  0.035462
   scf:    4     -924.884758     -924.884716     -924.884716  0.000601 -1.578651  0.024531
   scf:    5     -924.884783     -924.884754     -924.884754  0.001307 -1.583190  0.002502
   scf:    6     -924.884755     -924.884754     -924.884754  0.000085 -1.583476  0.001400
   scf:    7     -924.884755     -924.884755     -924.884755  0.000067 -1.583625  0.000408

SCF Convergence by DM+H criterion
max |DM_out - DM_in|         :     0.0000671758
max |H_out - H_in|      (eV) :     0.0004077967
SCF cycle converged after 7 iterations

Using DM_out to compute the final energy and forces
No. of atoms with KB's overlaping orbs in proc 0. Max # of overlaps:       4      11

siesta: E_KS(eV) =             -924.8848

siesta: Atomic forces (eV/Ang):
     1   -0.083894    3.509625    0.160937
     2   -2.119931   -1.763617    0.042905
     3    2.232241   -1.673954    0.156869
     4    0.167982   -3.041968   -0.235551
     5   -2.503574    1.636946    0.185594
     6    2.308735    1.310334   -0.357458
----------------------------------------
   Tot    0.001559   -0.022635   -0.046704
----------------------------------------
   Max    3.509625
   Res    1.720151    sqrt( Sum f_i^2 / 3N )
----------------------------------------
   Max    3.509625    constrained

Stress tensor Voigt[x,y,z,yz,xz,xy] (kbar):       18.48       10.95       -0.23       -0.64       -0.90       -0.53
(Free)E + p*V (eV/cell)     -929.3552
Target enthalpy (eV/cell)     -878.9527

siesta: Stress tensor (static) (eV/Ang**3):
         0.011603   -0.000366   -0.000542
        -0.000366    0.006987   -0.000359
        -0.000542   -0.000359   -0.000087

siesta: Pressure (static):         -9.88177657  kBar

siesta: Stress tensor (total) (eV/Ang**3):
         0.011535   -0.000330   -0.000565
        -0.000330    0.006834   -0.000401
        -0.000565   -0.000401   -0.000144

siesta: Pressure (total):         -9.73273567  kBar
 Anneal: Kinetic Energy=    2.0384198461491049E-002
 Anneal: Velocity scale factor =    1.0079326520778076     
Anneal: Cell scale factor = 
           0.9952981     0.0000226     0.0000406
           0.0000226     0.9955564     0.0000241
           0.0000406     0.0000241     0.9960085

siesta: Temp_ion =     435.957 K

                     ====================================
                        Begin MD step =      9
                     ====================================

outcoor: Atomic coordinates (Ang):                          
    0.01730239   -0.05108887   -0.00659569   1       1  O
    0.86753526    0.77313617    0.01635400   2       2  H
   -0.88265347    0.72187447   -0.03166565   2       3  H
   -0.01316106    0.04884611    2.91368636   1       4  O
    0.86705375   -0.75265337    2.78688997   2       5  H
   -0.91450650   -0.69393666    3.04077278   2       6  H

outcell: Unit cell vectors (Ang):
        9.677511   -0.000792    0.000538
       -0.000789    9.686003    0.001919
        0.000431    0.001533    7.748181

outcell: Cell vector modules (Ang)   :    9.677511    9.686004    7.748181
outcell: Cell angles (23,13,12) (deg):     89.9773     89.9936     90.0094
outcell: Cell volume (Ang**3)        :    726.2865
Gamma-point calculation with multiply-connected orbital pairs
Folding of H and S implicitly performed
<dSpData1D:S at geom step 9
  <sparsity:sparsity for geom step 9
    nrows_g=12 nrows=3 sparsity=.2500 nnzs=36, refcount: 7>
  <dData1D:(new from dSpData1D) n=36, refcount: 1>
refcount: 1>
new_DM -- step:     9
Re-using DM from previous geometries...
Number of DMs in history: 1
 DM extrapolation coefficients: 
1   1.00000
New DM after history re-use:
<dSpData2D:SpM extrapolated using coords
  <sparsity:sparsity for geom step 9
    nrows_g=12 nrows=3 sparsity=.2500 nnzs=36, refcount: 9>
  <dData2D:(temp array for extrapolation) n=36 m=1, refcount: 1>
refcount: 1>
Note: For starting DM, Qtot, Tr[D*S] =         16.00000000         16.03136496
No. of atoms with KB's overlaping orbs in proc 0. Max # of overlaps:       5      11

InitMesh: MESH = 60 x 60 x 48 = 172800
InitMesh: Mesh cutoff (required, used) =   100.000   106.051 Ry
New grid distribution [1]: sub = 2
New grid distribution [2]: sub = 2
New grid distribution [3]: sub = 2
Setting up quadratic distribution...

        iscf     Eharris(eV)        E_KS(eV)     FreeEng(eV)     dDmax    Ef(eV) dHmax(eV)
   scf:    1     -924.479424     -925.279797     -925.279797  0.070701 -4.366406  1.008871
   scf:    2     -924.504191     -925.087211     -925.087211  0.129082 -0.782285  2.133459
   scf:    3     -925.428633     -925.346669     -925.346669  0.087354 -1.122480  0.094427
   scf:    4     -925.347169     -925.346929     -925.346929  0.001879 -1.126911  0.064699
   scf:    5     -925.347311     -925.347143     -925.347143  0.003493 -1.139971  0.010597
   scf:    6     -925.347152     -925.347148     -925.347148  0.000470 -1.143606  0.003189
   scf:    7     -925.347149     -925.347148     -925.347148  0.000095 -1.144309  0.001872
   scf:    8     -925.347149     -925.347148     -925.347148  0.000043 -1.144390  0.001288
   scf:    9     -925.347149     -925.347149     -925.347149  0.000060 -1.144420  0.000433

SCF Convergence by DM+H criterion
max |DM_out - DM_in|         :     0.0000595574
max |H_out - H_in|      (eV) :     0.0004330826
SCF cycle converged after 9 iterations

Using DM_out to compute the final energy and forces
No. of atoms with KB's overlaping orbs in proc 0. Max # of overlaps:       5      11

siesta: E_KS(eV) =             -925.3471

siesta: Atomic forces (eV/Ang):
     1   -0.084038    2.832580    0.182950
     2   -1.389618   -1.406712    0.058747
     3    1.504519   -1.356087    0.147121
     4    0.309703   -2.494403   -0.275423
     5   -1.863822    1.415552    0.132171
     6    1.527030    0.988088   -0.289568
----------------------------------------
   Tot    0.003774   -0.020982   -0.044002
----------------------------------------
   Max    2.832580
   Res    1.320405    sqrt( Sum f_i^2 / 3N )
----------------------------------------
   Max    2.832580    constrained

Stress tensor Voigt[x,y,z,yz,xz,xy] (kbar):       11.19        8.93       -0.10       -0.59       -0.79       -0.81
(Free)E + p*V (eV/cell)     -928.3728
Target enthalpy (eV/cell)     -880.0159

siesta: Stress tensor (static) (eV/Ang**3):
         0.007643   -0.000519   -0.000400
        -0.000519    0.005641   -0.000349
        -0.000400   -0.000349   -0.000017

siesta: Pressure (static):         -7.08514355  kBar

siesta: Stress tensor (total) (eV/Ang**3):
         0.006987   -0.000505   -0.000492
        -0.000505    0.005574   -0.000366
        -0.000492   -0.000366   -0.000063

siesta: Pressure (total):         -6.67459876  kBar
 Anneal: Kinetic Energy=    4.9173450520207412E-002
 Anneal: Velocity scale factor =   0.99155650505858639     
Anneal: Cell scale factor = 
           0.9956092     0.0000317     0.0000335
           0.0000317     0.9956533     0.0000209
           0.0000335     0.0000209     0.9960031

siesta: Temp_ion =    1017.776 K

                     ====================================
                        Begin MD step =     10
                     ====================================

outcoor: Atomic coordinates (Ang):                          
    0.01944049   -0.05074820   -0.00710191   1       1  O
    0.80888861    0.74225356    0.02117185   2       2  H
   -0.82351267    0.68797026   -0.02944438   2       3  H
   -0.01473639    0.04953252    2.90261989   1       4  O
    0.79797413   -0.72839288    2.76429747   2       5  H
   -0.85302700   -0.66880511    3.03392289   2       6  H

outcell: Unit cell vectors (Ang):
        9.635019   -0.000482    0.000859
       -0.000478    9.643901    0.002114
        0.000688    0.001688    7.717212

outcell: Cell vector modules (Ang)   :    9.635019    9.643902    7.717212
outcell: Cell angles (23,13,12) (deg):     89.9749     89.9898     90.0057
outcell: Cell volume (Ang**3)        :    717.0769
Gamma-point calculation with multiply-connected orbital pairs
Folding of H and S implicitly performed
<dSpData1D:S at geom step 10
  <sparsity:sparsity for geom step 10
    nrows_g=12 nrows=3 sparsity=.2500 nnzs=36, refcount: 7>
  <dData1D:(new from dSpData1D) n=36, refcount: 1>
refcount: 1>
new_DM -- step:    10
Re-using DM from previous geometries...
Number of DMs in history: 1
 DM extrapolation coefficients: 
1   1.00000
New DM after history re-use:
<dSpData2D:SpM extrapolated using coords
  <sparsity:sparsity for geom step 10
    nrows_g=12 nrows=3 sparsity=.2500 nnzs=36, refcount: 9>
  <dData2D:(temp array for extrapolation) n=36 m=1, refcount: 1>
refcount: 1>
Note: For starting DM, Qtot, Tr[D*S] =         16.00000000         16.03447330
No. of atoms with KB's overlaping orbs in proc 0. Max # of overlaps:       5      11

InitMesh: MESH = 60 x 60 x 48 = 172800
InitMesh: Mesh cutoff (required, used) =   100.000   106.921 Ry
New grid distribution [1]: sub = 2
New grid distribution [2]: sub = 2
New grid distribution [3]: sub = 2
Setting up quadratic distribution...

        iscf     Eharris(eV)        E_KS(eV)     FreeEng(eV)     dDmax    Ef(eV) dHmax(eV)
   scf:    1     -924.286883     -925.583036     -925.583036  0.103833 -3.914220  1.310682
   scf:    2     -924.664353     -925.375916     -925.375916  0.148480 -3.237974  2.384418
   scf:    3     -925.803449     -925.693802     -925.693802  0.096020 -3.686981  0.125807
   scf:    4     -925.694618     -925.694227     -925.694227  0.002585 -3.694396  0.086852
   scf:    5     -925.694825     -925.694556     -925.694556  0.004919 -3.715654  0.017603
   scf:    6     -925.694577     -925.694568     -925.694568  0.000710 -3.722049  0.006097
   scf:    7     -925.694570     -925.694569     -925.694569  0.000149 -3.723925  0.003193
   scf:    8     -925.694570     -925.694569     -925.694569  0.000072 -3.723989  0.002199
   scf:    9     -925.694570     -925.694570     -925.694570  0.000100 -3.723927  0.000742
   scf:   10     -925.694570     -925.694570     -925.694570  0.000040 -3.723836  0.000187

SCF Convergence by DM+H criterion
max |DM_out - DM_in|         :     0.0000395154
max |H_out - H_in|      (eV) :     0.0001868328
SCF cycle converged after 10 iterations

Using DM_out to compute the final energy and forces
No. of atoms with KB's overlaping orbs in proc 0. Max # of overlaps:       5      11

siesta: E_KS(eV) =             -925.6946

siesta: Atomic forces (eV/Ang):
     1   -0.043188    1.313215    0.192641
     2   -0.076611   -0.600065    0.105240
     3    0.152051   -0.632467    0.121428
     4    0.476652   -1.171408   -0.307170
     5   -0.639823    0.784626   -0.047088
     6    0.136730    0.290304   -0.103752
----------------------------------------
   Tot    0.005812   -0.015794   -0.038701
----------------------------------------
   Max    1.313215
   Res    0.548388    sqrt( Sum f_i^2 / 3N )
----------------------------------------
   Max    1.313215    constrained

Stress tensor Voigt[x,y,z,yz,xz,xy] (kbar):       -0.65        3.62        0.02       -0.55       -0.25       -0.97
(Free)E + p*V (eV/cell)     -926.1399
Target enthalpy (eV/cell)     -880.9381

siesta: Stress tensor (static) (eV/Ang**3):
         0.001145   -0.000629   -0.000036
        -0.000629    0.002490   -0.000369
        -0.000036   -0.000369    0.000046

siesta: Pressure (static):         -1.96619936  kBar

siesta: Stress tensor (total) (eV/Ang**3):
        -0.000406   -0.000605   -0.000159
        -0.000605    0.002257   -0.000345
        -0.000159   -0.000345    0.000012

siesta: Pressure (total):         -0.99494835  kBar
 Anneal: Kinetic Energy=    6.8275313739797366E-002
 Anneal: Velocity scale factor =   0.98828025772054962     
Anneal: Cell scale factor = 
           0.9960574     0.0000355     0.0000106
           0.0000355     0.9958698     0.0000197
           0.0000106     0.0000197     0.9959988

siesta: Temp_ion =    1403.817 K

siesta: Program's energy decomposition (eV):
siesta: Ebs     =      -188.090186
siesta: Eions   =      1621.026762
siesta: Ena     =       347.554513
siesta: Ekin    =       685.434909
siesta: Enl     =      -113.542973
siesta: Eso     =         0.000000
siesta: Edftu   =         0.000000
siesta: DEna    =        -7.552615
siesta: DUscf   =         3.200760
siesta: DUext   =         0.000000
siesta: Ex      =      -194.958567
siesta: Ec      =       -24.803835
siesta: Exc     =      -219.762401
siesta: EbV     =         0.000000
siesta: eta*DQ  =         0.000000
siesta: Emadel  =         0.000000
siesta: Emeta   =         0.000000
siesta: Emolmec =         0.000000
siesta: Ekinion =         0.907287
siesta: Eharris =      -924.787283
siesta: Etot    =      -924.787283
siesta: FreeEng =      -924.787283

siesta: Final energy (eV):
siesta:  Band Struct. =    -188.090186
siesta:       Kinetic =     685.434909
siesta:       Hartree =     916.512764
siesta:         Edftu =       0.000000
siesta:       Eso     =       0.000000
siesta:    Ext. field =       0.000000
siesta:         Exch. =    -194.958567
siesta:         Corr. =     -24.803835
siesta:     Bulk bias =       0.000000
siesta:   Exch.-corr. =    -219.762401
siesta:  Ion-electron =   -2418.640717
siesta:       Ion-ion =     110.760876
siesta:       Ekinion =       0.907287
siesta: D3 dispersion =       0.000000
siesta:         Total =    -924.787283
siesta:         Fermi =      -3.723836

siesta: Atomic forces (eV/Ang):
siesta:      1   -0.043188    1.313215    0.192641
siesta:      2   -0.076611   -0.600065    0.105240
siesta:      3    0.152051   -0.632467    0.121428
siesta:      4    0.476652   -1.171408   -0.307170
siesta:      5   -0.639823    0.784626   -0.047088
siesta:      6    0.136730    0.290304   -0.103752
siesta: ----------------------------------------
siesta:    Tot    0.005812   -0.015794   -0.038701

siesta: Stress tensor (static) (eV/Ang**3):
siesta:     0.001145   -0.000629   -0.000036
siesta:    -0.000629    0.002490   -0.000369
siesta:    -0.000036   -0.000369    0.000046

siesta: Cell volume =        717.076908 Ang**3

siesta: Pressure (static):
siesta:                Solid            Molecule  Units
siesta:          -0.00001337          0.00000626  Ry/Bohr**3
siesta:          -0.00122721          0.00057464  eV/Ang**3
siesta:          -1.96619936          0.92067682  kBar
(Free)E+ p_basis*V_orbitals  =        -925.044556
(Free)Eharris+ p_basis*V_orbitals  =        -925.044556

siesta: Electric dipole (a.u.)  =   -0.049701    0.013173    0.000002
siesta: Electric dipole (Debye) =   -0.126328    0.033481    0.000004

cite: Please see "anneal_pt.bib" for an exhaustive BiBTeX file.
cite: Please clearly indicate Siesta version in published work: 5.1-MaX-50-g4df4b742f-dirty
cite: This calculation has made use of the following articles
cite: which are encouraged to be cited in a published work.
        Primary SIESTA paper
          DOI: www.doi.org/10.1088/0953-8984/14/11/302


>> End of run:   5-SEP-2024  22:07:49
Job completed
