Executable      : /home/fnpedron/Siesta/siesta-dev/_siesta_bin/bin/siesta
Version         : 5.1-MaX-50-g4df4b742f-dirty
Architecture    : x86_64
Compiler version: GNU-11.4.0
Compiler flags  : -g -fallow-argument-mismatch -O3 -march=native
Environment variables: 
  SIESTA_PS_PATH: /home/fnpedron/Siesta/siesta-dev/Tests/Pseudos
Parallelisations: MPI
NetCDF support
NetCDF-4 support
Lua support
DFT-D3 support

Runtime information:
* Directory : /home/fnpedron/Siesta/siesta-dev/Tests/09.MolecularDynamics/work/anneal_pt_restart
* Running on 4 nodes in parallel.
>> Start of run:   5-SEP-2024  22:07:58

                           *********************** 
                           *  WELCOME TO SIESTA  * 
                           *********************** 

 NOTE: Siesta V5 introduces some new defaults for basis-set generation
 NOTE: which might lead to slightly different numerical results.
 NOTE: Please see the manual for full details and compatibility measures.


reinit: Reading from standard input
reinit: Dumping input in INPUT_TMP.92296
************************** Dump of input data file ****************************
%include ../../base_wat2.fdf
SystemLabel           anneal_pt
MD.TypeOfRun          anneal
MD.AnnealOption       TemperatureAndPressure
MD.InitialTemperature 100 K
MD.TargetTemperature  600 K
MD.TauRelax           25 fs
MD.TargetPressure     10.0 GPa
************************** End of input data file *****************************

reinit: -----------------------------------------------------------------------
reinit: System Name: Water molecules MD
reinit: -----------------------------------------------------------------------
reinit: System Label: anneal_pt
reinit: -----------------------------------------------------------------------

initatom: Reading input for the pseudopotentials and atomic orbitals ----------
Species number:   1 Atomic number:    8 Label: O
Species number:   2 Atomic number:    1 Label: H

Ground state valence configuration (from tables):   2s02  2p04  3d00  4f00
Ground state valence configuration (from tables):   1s01  2p00  3d00  4f00

---- Processing specs for species: O
Reading pseudopotential information in formatted form from:
  /home/fnpedron/Siesta/siesta-dev/Tests/Pseudos/O.psf

---- Processing specs for species: H
Reading pseudopotential information in formatted form from:
  /home/fnpedron/Siesta/siesta-dev/Tests/Pseudos/H.psf

---- Pseudopotential check for O 

Pseudized shells:
2s( 2.00) rc: 1.14
2p( 4.00) rc: 1.14
3d( 0.00) rc: 1.14
4f( 0.00) rc: 1.14
Valence configuration for ps generation: (assumed as above)

---- Pseudopotential check for H 

Pseudized shells:
1s( 1.00) rc: 1.25
2p( 0.00) rc: 1.25
3d( 0.00) rc: 1.25
4f( 0.00) rc: 1.25
Valence configuration for ps generation: (assumed as above)
For O, standard SIESTA heuristics set lmxkb to 2
 (one more than the basis l, including polarization orbitals).
Use PS.lmax or PS.KBprojectors blocks to override.
For H, standard SIESTA heuristics set lmxkb to 1
 (one more than the basis l, including polarization orbitals).
Use PS.lmax or PS.KBprojectors blocks to override.

<basis_specs>
===============================================================================
O                    Z=   8    Mass=  15.999        Charge= 0.17977+309
Lmxo=1 Lmxkb= 2    BasisType=split      Semic=F
L=0  Nsemic=0  Cnfigmx=2
          i=1  nzeta=1  polorb=0  (2s)
            splnorm:   0.15000    
               vcte:    40.000    
               rinn:  -0.90000    
               qcoe:    0.0000    
               qyuk:    0.0000    
               qwid:   0.10000E-01
                rcs:    0.0000    
            lambdas:    1.0000    
L=1  Nsemic=0  Cnfigmx=2
          i=1  nzeta=1  polorb=0  (2p)
            splnorm:   0.15000    
               vcte:    40.000    
               rinn:  -0.90000    
               qcoe:    0.0000    
               qyuk:    0.0000    
               qwid:   0.10000E-01
                rcs:    0.0000    
            lambdas:    1.0000    
-------------------------------------------------------------------------------
L=0  Nkbl=1  erefs: 0.17977+309
L=1  Nkbl=1  erefs: 0.17977+309
L=2  Nkbl=1  erefs: 0.17977+309
===============================================================================
</basis_specs>

Using PAO.SplitTailNorm
atom: Called for O                     (Z =   8)
Maximum radius (at nrval) set to   50.00000 8518

read_vps: Pseudopotential generation method:
read_vps: ATM3      Troullier-Martins                       
Valence charge in pseudo generation:    6.00000

xc_check: Exchange-correlation functional:
xc_check: Ceperley-Alder
V l=0 = -2*Zval/r beyond r=  1.1366
V l=1 = -2*Zval/r beyond r=  1.1332
V l=2 = -2*Zval/r beyond r=  1.1298
All V_l potentials equal beyond r=  1.1355
This should be close to max(r_c) in ps generation
All pots = -2*Zval/r beyond r=  1.1366
Using small-core scheme (local charge) for Vlocal

VLOCAL_FROM_CHLOCAL: 99.0% of the norm of Vloc inside     33.667 Ry
VLOCAL_FROM_CHLOCAL: 99.9% of the norm of Vloc inside     76.727 Ry
atom: Maximum radius for chlocal:    1.37241
atom: Maximum radius for r*vlocal+2*Zval:    1.25469

KBgen: Kleinman-Bylander projectors: 
GHOST: No ghost state for L =  0
   l= 0   rc=  1.293209   el= -1.742414   Ekb=  9.076872   kbcos=  0.325320
GHOST: No ghost state for L =  1
   l= 1   rc=  1.284119   el= -0.676589   Ekb= -8.194485   kbcos= -0.396010
GHOST: No ghost state for L =  2
   l= 2   rc=  1.433152   el=  0.013307   Ekb= -2.071665   kbcos= -0.003690

KBgen: Total number of Kleinman-Bylander projectors:   9
atom: -------------------------------------------------------------------------

atom: SANKEY-TYPE ORBITALS:

SPLIT: Orbitals with angular momentum L= 0

SPLIT: Basis orbitals for state 2s

SPLIT: PAO cut-off radius determined from an
SPLIT: energy shift=  0.010000 Ry
Split based on tail norm

   izeta = 1
                 lambda =    1.000000
                     rc =    3.560943
                 energy =   -1.731321
                kinetic =    1.587329
    potential(screened) =   -3.318651
       potential(ionic) =  -11.260325

SPLIT: Orbitals with angular momentum L= 1

SPLIT: Basis orbitals for state 2p

SPLIT: PAO cut-off radius determined from an
SPLIT: energy shift=  0.010000 Ry
Split based on tail norm

   izeta = 1
                 lambda =    1.000000
                     rc =    4.290924
                 energy =   -0.665565
                kinetic =    4.934810
    potential(screened) =   -5.600376
       potential(ionic) =  -13.346429
atom: Total number of Sankey-type orbitals:  4

atm_pop: Valence configuration (for local Pseudopot. screening):
 2s( 2.00)                                                            
 2p( 4.00)                                                            
Vna: chval, zval:    6.00000   6.00000

Vna:  Cut-off radius for the neutral-atom potential:   4.290924

atom: _________________________________________________________________________

<basis_specs>
===============================================================================
H                    Z=   1    Mass=  1.0080        Charge= 0.17977+309
Lmxo=0 Lmxkb= 1    BasisType=split      Semic=F
L=0  Nsemic=0  Cnfigmx=1
          i=1  nzeta=1  polorb=0  (1s)
            splnorm:   0.15000    
               vcte:    40.000    
               rinn:  -0.90000    
               qcoe:    0.0000    
               qyuk:    0.0000    
               qwid:   0.10000E-01
                rcs:    0.0000    
            lambdas:    1.0000    
-------------------------------------------------------------------------------
L=0  Nkbl=1  erefs: 0.17977+309
L=1  Nkbl=1  erefs: 0.17977+309
===============================================================================
</basis_specs>

Using PAO.SplitTailNorm
atom: Called for H                     (Z =   1)
Maximum radius (at nrval) set to   50.00000 8518

read_vps: Pseudopotential generation method:
read_vps: ATM3      Troullier-Martins                       
Valence charge in pseudo generation:    1.00000

xc_check: Exchange-correlation functional:
xc_check: Ceperley-Alder
V l=0 = -2*Zval/r beyond r=  1.2384
V l=1 = -2*Zval/r beyond r=  1.2321
All V_l potentials equal beyond r=  1.2371
This should be close to max(r_c) in ps generation
All pots = -2*Zval/r beyond r=  1.2384
Using small-core scheme (local charge) for Vlocal

VLOCAL_FROM_CHLOCAL: 99.0% of the norm of Vloc inside     28.363 Ry
VLOCAL_FROM_CHLOCAL: 99.9% of the norm of Vloc inside     64.639 Ry
atom: Maximum radius for chlocal:    1.44620
atom: Maximum radius for r*vlocal+2*Zval:    1.31026

KBgen: Kleinman-Bylander projectors: 
GHOST: No ghost state for L =  0
   l= 0   rc=  1.364142   el= -0.467325   Ekb= -2.009475   kbcos= -0.336680
GHOST: No ghost state for L =  1
   l= 1   rc=  1.430269   el=  0.007562   Ekb= -0.503817   kbcos= -0.022554

KBgen: Total number of Kleinman-Bylander projectors:   4
atom: -------------------------------------------------------------------------

atom: SANKEY-TYPE ORBITALS:

SPLIT: Orbitals with angular momentum L= 0

SPLIT: Basis orbitals for state 1s

SPLIT: PAO cut-off radius determined from an
SPLIT: energy shift=  0.010000 Ry
Split based on tail norm

   izeta = 1
                 lambda =    1.000000
                     rc =    5.285354
                 energy =   -0.456120
                kinetic =    0.900445
    potential(screened) =   -1.356565
       potential(ionic) =   -1.890080
atom: Total number of Sankey-type orbitals:  1

atm_pop: Valence configuration (for local Pseudopot. screening):
 1s( 1.00)                                                            
Vna: chval, zval:    1.00000   1.00000

Vna:  Cut-off radius for the neutral-atom potential:   5.285354

atom: _________________________________________________________________________

prinput: Basis input 

PAO.BasisType split     

%block ChemicalSpeciesLabel
    1    8 O                       # Species index, atomic number, species label
    2    1 H                       # Species index, atomic number, species label
%endblock ChemicalSpeciesLabel

%block PAO.Basis                 # Define Basis set
# WARNING: This information might be incomplete!
O                     2                    # Species label, number of l-shells
 n=2   0   1                         # n, l, Nzeta 
   3.561   
   1.000   
 n=2   1   1                         # n, l, Nzeta 
   4.291   
   1.000   
H                     1                    # Species label, number of l-shells
 n=1   0   1                         # n, l, Nzeta 
   5.285   
   1.000   
%endblock PAO.Basis

prinput: ----------------------------------------------------------------------

Dumping basis to NetCDF file O.ion.nc
Dumping basis to NetCDF file H.ion.nc
coor:   Atomic-coordinates input format  =     Cartesian coordinates
coor:                                          (in Angstroms)

ioxv: Reading coordinates and velocities from file
! Info in XV file prevails over previous structure input

siesta: Atomic coordinates (Bohr) and species
siesta:      0.04068  -0.09324  -0.01331  1        1
siesta:      1.39878   1.32834   0.04549  2        2
siesta:     -1.42479   1.21969  -0.05416  2        3
siesta:     -0.03078   0.09200   5.46268  1        4
siesta:      1.34551  -1.31378   5.18590  2        5
siesta:     -1.47535  -1.20987   5.72273  2        6

siesta: System type = chain     

initatomlists: Number of atoms, orbitals, and projectors:      6    12    34

siesta: ******************** Simulation parameters ****************************
siesta:
siesta: The following are some of the parameters of the simulation.
siesta: A complete list of the parameters used, including default values,
siesta: can be found in file out.fdf
siesta:
redata: Spin configuration                          = none
redata: Number of spin components                   = 1
redata: Time-Reversal Symmetry                      = T
redata: Spin spiral                                 = F
redata: Long output                                 =   F
redata: Number of Atomic Species                    =        2
redata: Charge density info will appear in .RHO file
redata: Write Mulliken Pop.                         = NO
redata: Matel table size (NRTAB)                    =     1024
redata: Mesh Cutoff                                 =   100.0000 Ry
redata: Net charge of the system                    =     0.0000 |e|
redata: Min. number of SCF Iter                     =        0
redata: Max. number of SCF Iter                     =     1000
redata: SCF convergence failure will abort job
redata: SCF mix quantity                            = Hamiltonian
redata: Mix DM or H after convergence               =   F
redata: Recompute H after scf cycle                 =   F
redata: Mix DM in first SCF step                    =   T
redata: Write Pulay info on disk                    =   F
redata: New DM Occupancy tolerance                  = 0.000000000001
redata: No kicks to SCF
redata: DM Mixing Weight for Kicks                  =     0.5000
redata: Require Harris convergence for SCF          =   F
redata: Harris energy tolerance for SCF             =     0.000100 eV
redata: Require DM convergence for SCF              =   T
redata: DM tolerance for SCF                        =     0.000100
redata: Require EDM convergence for SCF             =   F
redata: EDM tolerance for SCF                       =     0.001000 eV
redata: Require H convergence for SCF               =   T
redata: Hamiltonian tolerance for SCF               =     0.001000 eV
redata: Require (free) Energy convergence for SCF   =   F
redata: (free) Energy tolerance for SCF             =     0.000100 eV
redata: Using DFT-D3 dispersion                     =   F
redata: Using Saved Data (generic)                  =   F
redata: Use continuation files for DM               =   T
redata: Neglect nonoverlap interactions             =   F
redata: Method of Calculation                       = Diagonalization
redata: Electronic Temperature                      =   299.9863 K
redata: Fix the spin of the system                  =   F
redata: Max. number of TDED Iter                    =        1
redata: Number of TDED substeps                     =        3
redata: Dynamics option                             = Annealing MD run
redata: Initial MD time step                        =        1
redata:   Final MD time step                        =       10
redata: Length of MD time step                      =     1.0000 fs
redata: Initial Temperature of MD run               =   100.0000 K
redata: Annealing Option                            = Temperature and Pressure
redata: Target Temperature                          =   600.0000 Kelvin
redata: Target Pressure                             =     0.0624 eV/Ang**3
redata: Annealing Relaxation Time                   =    25.0000 fs
redata: Approx. Bulk Modulus                        =     0.6241 eV/Ang**3
mix.SCF: Pulay mixing                            = Pulay
mix.SCF:    Variant                              = stable
mix.SCF:    History steps                        = 2
mix.SCF:    Linear mixing weight                 =     0.250000
mix.SCF:    Mixing weight                        =     0.250000
mix.SCF:    SVD condition                        = 0.1000E-07
redata: Save all siesta data in one NC              =   F
redata: ***********************************************************************

%block SCF.Mixers
  Pulay
%endblock SCF.Mixers

%block SCF.Mixer.Pulay
  # Mixing method
  method pulay
  variant stable

  # Mixing options
  weight 0.2500
  weight.linear 0.2500
  history 2
%endblock SCF.Mixer.Pulay

Size of DM history Fstack: 1
Total number of electrons:    16.000000
Total ionic charge:    16.000000

* ProcessorY, Blocksize:    2   3


* Orbital distribution balance (max,min):     3     3


siesta: k-grid: Number of k-points = 1
siesta: k-point is Gamma-only

diag: Algorithm                                     = D&C
diag: Parallel over k                               =   F
diag: Use parallel 2D distribution                  =   T
diag: Parallel block-size                           = 3
diag: Parallel distribution                         =     2 x     2
diag: Used triangular part                          = Lower
diag: Absolute tolerance                            =  0.100E-15
diag: Orthogonalization factor                      =  0.100E-05
diag: Memory factor                                 =  1.0000


ts: **************************************************************
ts: Save H and S matrices                           =    F
ts: Save DM and EDM matrices                        =    F
ts: Only save the overlap matrix S                  =    F
ts: **************************************************************

************************ Begin: TS CHECKS AND WARNINGS ************************
************************ End: TS CHECKS AND WARNINGS **************************


                     ====================================
                        Begin MD step =      1
                     ====================================

outcoor: Atomic coordinates (Ang):                          
    0.02152719   -0.04934056   -0.00704160   1       1  O
    0.74020332    0.70292917    0.02407208   2       2  H
   -0.75396657    0.64543120   -0.02866123   2       3  H
   -0.01628910    0.04868541    2.89072592   1       4  O
    0.71201239   -0.69522137    2.74426249   2       5  H
   -0.78072312   -0.64023527    3.02833608   2       6  H

outcell: Unit cell vectors (Ang):
        9.596870    0.000000    0.000000
        0.000000    9.603682    0.000000
        0.000000    0.000000    7.685674

outcell: Cell vector modules (Ang)   :    9.596870    9.603682    7.685674
outcell: Cell angles (23,13,12) (deg):     90.0000     90.0000     90.0000
outcell: Cell volume (Ang**3)        :    708.3524
Gamma-point calculation with multiply-connected orbital pairs
Folding of H and S implicitly performed
<dSpData1D:S at geom step 1
  <sparsity:sparsity for geom step 1
    nrows_g=12 nrows=3 sparsity=.2500 nnzs=36, refcount: 7>
  <dData1D:(new from dSpData1D) n=36, refcount: 1>
refcount: 1>
new_DM -- step:     1
Initializing Density Matrix...

Attempting to read DM from file... Failed...
DM filled with atomic data:
<dSpData2D:DM initialized from atoms
  <sparsity:sparsity for geom step 1
    nrows_g=12 nrows=3 sparsity=.2500 nnzs=36, refcount: 8>
  <dData2D:DM n=36 m=1, refcount: 1>
refcount: 1>
No. of atoms with KB's overlaping orbs in proc 0. Max # of overlaps:       5      11

InitMesh: MESH = 60 x 60 x 48 = 172800
InitMesh: Mesh cutoff (required, used) =   100.000   107.800 Ry
New grid distribution [1]: sub = 2
New grid distribution [2]: sub = 2
New grid distribution [3]: sub = 2
Setting up quadratic distribution...

stepf: Fermi-Dirac step function

siesta: Program's energy decomposition (eV):
siesta: Ebs     =      -142.789941
siesta: Eions   =      1621.026762
siesta: Ena     =       347.346256
siesta: Ekin    =       744.871452
siesta: Enl     =      -134.325250
siesta: Eso     =         0.000000
siesta: Edftu   =         0.000000
siesta: DEna    =       -37.211953
siesta: DUscf   =         7.769037
siesta: DUext   =         0.000000
siesta: Ex      =      -205.025360
siesta: Ec      =       -25.318912
siesta: Exc     =      -230.344272
siesta: EbV     =         0.000000
siesta: eta*DQ  =         0.000000
siesta: Emadel  =         0.000000
siesta: Emeta   =         0.000000
siesta: Emolmec =         0.000000
siesta: Ekinion =         0.000000
siesta: Eharris =      -916.851696
siesta: Etot    =      -922.921492
siesta: FreeEng =      -922.921492

        iscf     Eharris(eV)        E_KS(eV)     FreeEng(eV)     dDmax    Ef(eV) dHmax(eV)
   scf:    1     -916.851696     -922.921492     -922.921492  0.680254 -4.369350  7.409421
timer: Routine,Calls,Time,% = IterSCF        1       0.008   6.96
   scf:    2     -926.426181     -924.879777     -924.879777  0.151661 -3.531491  3.560261
   scf:    3     -925.622468     -925.419032     -925.419032  0.130015 -2.848997  0.713003
   scf:    4     -925.440466     -925.430218     -925.430218  0.009501 -2.918535  0.521595
   scf:    5     -925.446344     -925.438925     -925.438925  0.019540 -3.013171  0.171597
   scf:    6     -925.440431     -925.439719     -925.439719  0.006403 -3.023400  0.091154
   scf:    7     -925.439872     -925.439815     -925.439815  0.003140 -3.022564  0.028411
   scf:    8     -925.439827     -925.439822     -925.439822  0.000236 -3.019337  0.014102
   scf:    9     -925.439834     -925.439828     -925.439828  0.000305 -3.015354  0.009572
   scf:   10     -925.439833     -925.439831     -925.439831  0.000264 -3.013970  0.005714
   scf:   11     -925.439833     -925.439832     -925.439832  0.000274 -3.012853  0.003205
   scf:   12     -925.439832     -925.439832     -925.439832  0.000056 -3.012776  0.002474
   scf:   13     -925.439832     -925.439832     -925.439832  0.000049 -3.012780  0.001308
   scf:   14     -925.439832     -925.439832     -925.439832  0.000006 -3.012858  0.000753

SCF Convergence by DM+H criterion
max |DM_out - DM_in|         :     0.0000058600
max |H_out - H_in|      (eV) :     0.0007527327
SCF cycle converged after 14 iterations

Using DM_out to compute the final energy and forces
No. of atoms with KB's overlaping orbs in proc 0. Max # of overlaps:       5      11

siesta: E_KS(eV) =             -925.4398

siesta: E_KS - E_eggbox =      -925.4398

siesta: Atomic forces (eV/Ang):
     1    0.090585   -1.678735    0.159978
     2    2.246432    0.991683    0.215099
     3   -2.305119    0.793488    0.063020
     4    0.519126    1.558507   -0.273758
     5    1.704186   -0.673349   -0.515442
     6   -2.244008   -0.998770    0.319441
----------------------------------------
   Tot    0.011203   -0.007176   -0.031661
----------------------------------------
   Max    2.305119
   Res    1.233944    sqrt( Sum f_i^2 / 3N )
----------------------------------------
   Max    2.305119    constrained

Stress tensor Voigt[x,y,z,yz,xz,xy] (kbar):      -17.47       -6.25        0.01       -0.70        0.96       -0.70
(Free)E + p*V (eV/cell)     -921.9451
Target enthalpy (eV/cell)     -881.2280

siesta: Stress tensor (static) (eV/Ang**3):
        -0.008983   -0.000517    0.000729
        -0.000517   -0.003475   -0.000491
         0.000729   -0.000491    0.000036

siesta: Pressure (static):          6.63398462  kBar

siesta: Stress tensor (total) (eV/Ang**3):
        -0.010907   -0.000436    0.000599
        -0.000436   -0.003901   -0.000438
         0.000599   -0.000438    0.000007

siesta: Pressure (total):          7.90442608  kBar
 Anneal: Kinetic Energy=    4.4157924410937452E-002
 Anneal: Velocity scale factor =   0.99288348363907852     
Anneal: Cell scale factor = 
           0.9966572     0.0000255    -0.0000377
           0.0000255     0.9962455     0.0000271
          -0.0000377     0.0000271     0.9960004

siesta: Temp_ion =     916.414 K

                     ====================================
                        Begin MD step =      2
                     ====================================

outcoor: Atomic coordinates (Ang):                          
    0.02360213   -0.04949777   -0.00724286   1       1  O
    0.70893008    0.67962189    0.03131436   2       2  H
   -0.72211715    0.61675557   -0.02523587   2       3  H
   -0.01736898    0.04985623    2.87929416   1       4  O
    0.65967091   -0.67310176    2.71702042   2       5  H
   -0.74641794   -0.62528555    3.02424337   2       6  H

outcell: Unit cell vectors (Ang):
        9.564790    0.000245   -0.000362
        0.000245    9.567625    0.000261
       -0.000290    0.000209    7.654934

outcell: Cell vector modules (Ang)   :    9.564790    9.567625    7.654934
outcell: Cell angles (23,13,12) (deg):     89.9969     90.0043     89.9971
outcell: Cell volume (Ang**3)        :    700.5208
Gamma-point calculation with multiply-connected orbital pairs
Folding of H and S implicitly performed
<dSpData1D:S at geom step 2
  <sparsity:sparsity for geom step 2
    nrows_g=12 nrows=3 sparsity=.2500 nnzs=36, refcount: 7>
  <dData1D:(new from dSpData1D) n=36, refcount: 1>
refcount: 1>
new_DM -- step:     2
Re-using DM from previous geometries...
Number of DMs in history: 1
 DM extrapolation coefficients: 
1   1.00000
New DM after history re-use:
<dSpData2D:SpM extrapolated using coords
  <sparsity:sparsity for geom step 2
    nrows_g=12 nrows=3 sparsity=.2500 nnzs=36, refcount: 9>
  <dData2D:(temp array for extrapolation) n=36 m=1, refcount: 1>
refcount: 1>
No. of atoms with KB's overlaping orbs in proc 0. Max # of overlaps:       5      11

InitMesh: MESH = 60 x 60 x 48 = 172800
InitMesh: Mesh cutoff (required, used) =   100.000   108.668 Ry
New grid distribution [1]: sub = 2
New grid distribution [2]: sub = 2
New grid distribution [3]: sub = 2
Setting up quadratic distribution...

        iscf     Eharris(eV)        E_KS(eV)     FreeEng(eV)     dDmax    Ef(eV) dHmax(eV)
   scf:    1     -924.023612     -924.876263     -924.876263  0.072286 -2.703896  0.689690
   scf:    2     -924.753336     -924.858302     -924.858302  0.064168 -2.344465  0.958508
   scf:    3     -924.927184     -924.906913     -924.906913  0.036761 -2.559790  0.060508
   scf:    4     -924.907071     -924.906993     -924.906993  0.001169 -2.565844  0.043262
   scf:    5     -924.907133     -924.907071     -924.907071  0.002964 -2.582649  0.004834
   scf:    6     -924.907073     -924.907072     -924.907072  0.000097 -2.583493  0.002390
   scf:    7     -924.907072     -924.907072     -924.907072  0.000102 -2.584233  0.000539
   scf:    8     -924.907072     -924.907072     -924.907072  0.000019 -2.584256  0.000380

SCF Convergence by DM+H criterion
max |DM_out - DM_in|         :     0.0000185139
max |H_out - H_in|      (eV) :     0.0003802995
SCF cycle converged after 8 iterations

Using DM_out to compute the final energy and forces
No. of atoms with KB's overlaping orbs in proc 0. Max # of overlaps:       5      11

siesta: E_KS(eV) =             -924.9071

siesta: Atomic forces (eV/Ang):
     1    0.275122   -3.919543    0.113773
     2    3.766434    2.163590    0.321556
     3   -4.008356    1.873243    0.023940
     4    0.156923    3.721986   -0.130381
     5    3.562864   -2.032190   -1.026425
     6   -3.735966   -1.806323    0.676286
----------------------------------------
   Tot    0.017021    0.000764   -0.021250
----------------------------------------
   Max    4.008356
   Res    2.397317    sqrt( Sum f_i^2 / 3N )
----------------------------------------
   Max    4.008356    constrained

Stress tensor Voigt[x,y,z,yz,xz,xy] (kbar):      -26.55      -13.11       -0.14       -1.06        2.03        0.14
(Free)E + p*V (eV/cell)     -919.1074
Target enthalpy (eV/cell)     -881.1840

siesta: Stress tensor (static) (eV/Ang**3):
        -0.015290   -0.000032    0.001408
        -0.000031   -0.007826   -0.000732
         0.001408   -0.000731   -0.000042

siesta: Pressure (static):         12.36776023  kBar

siesta: Stress tensor (total) (eV/Ang**3):
        -0.016569    0.000088    0.001267
         0.000089   -0.008184   -0.000664
         0.001268   -0.000664   -0.000084

siesta: Pressure (total):         13.26459799  kBar
 Anneal: Kinetic Energy=    1.1090132592523857E-002
 Anneal: Velocity scale factor =    1.0309213285295331     
Anneal: Cell scale factor = 
           0.9969959    -0.0000022    -0.0000823
          -0.0000022     0.9965080     0.0000438
          -0.0000823     0.0000438     0.9960093

siesta: Temp_ion =     248.127 K

                     ====================================
                        Begin MD step =      3
                     ====================================

outcoor: Atomic coordinates (Ang):                          
    0.02597637   -0.05211640   -0.00738831   1       1  O
    0.71334466    0.67663423    0.04209132   2       2  H
   -0.72835209    0.60526565   -0.02136028   2       3  H
   -0.01854345    0.05346395    2.86786252   1       4  O
    0.63975839   -0.67007285    2.67885246   2       5  H
   -0.74748740   -0.62752031    3.02732440   2       6  H

outcell: Unit cell vectors (Ang):
        9.536056    0.000222   -0.001148
        0.000223    9.534215    0.000679
       -0.000919    0.000543    7.624386

outcell: Cell vector modules (Ang)   :    9.536056    9.534215    7.624386
outcell: Cell angles (23,13,12) (deg):     89.9918     90.0138     89.9973
outcell: Cell volume (Ang**3)        :    693.2001
Gamma-point calculation with multiply-connected orbital pairs
Folding of H and S implicitly performed
<dSpData1D:S at geom step 3
  <sparsity:sparsity for geom step 3
    nrows_g=12 nrows=3 sparsity=.2500 nnzs=36, refcount: 7>
  <dData1D:(new from dSpData1D) n=36, refcount: 1>
refcount: 1>
new_DM -- step:     3
Re-using DM from previous geometries...
Number of DMs in history: 1
 DM extrapolation coefficients: 
1   1.00000
New DM after history re-use:
<dSpData2D:SpM extrapolated using coords
  <sparsity:sparsity for geom step 3
    nrows_g=12 nrows=3 sparsity=.2500 nnzs=36, refcount: 9>
  <dData2D:(temp array for extrapolation) n=36 m=1, refcount: 1>
refcount: 1>
No. of atoms with KB's overlaping orbs in proc 0. Max # of overlaps:       5      11

InitMesh: MESH = 60 x 60 x 48 = 172800
InitMesh: Mesh cutoff (required, used) =   100.000   109.412 Ry
New grid distribution [1]: sub = 2
New grid distribution [2]: sub = 2
New grid distribution [3]: sub = 2
Setting up quadratic distribution...

        iscf     Eharris(eV)        E_KS(eV)     FreeEng(eV)     dDmax    Ef(eV) dHmax(eV)
   scf:    1     -924.916143     -924.917234     -924.917234  0.032808 -2.571094  0.075169
   scf:    2     -924.917668     -924.917522     -924.917522  0.005739 -2.577234  0.022647
   scf:    3     -924.917593     -924.917562     -924.917562  0.001388 -2.576703  0.005918
   scf:    4     -924.917565     -924.917563     -924.917563  0.000139 -2.576864  0.003900
   scf:    5     -924.917565     -924.917564     -924.917564  0.000261 -2.577158  0.001337
   scf:    6     -924.917564     -924.917564     -924.917564  0.000032 -2.577174  0.000938

SCF Convergence by DM+H criterion
max |DM_out - DM_in|         :     0.0000320930
max |H_out - H_in|      (eV) :     0.0009382832
SCF cycle converged after 6 iterations

Using DM_out to compute the final energy and forces
No. of atoms with KB's overlaping orbs in proc 0. Max # of overlaps:       5      11

siesta: E_KS(eV) =             -924.9176

siesta: Atomic forces (eV/Ang):
     1    0.351344   -3.886664    0.074146
     2    3.598196    2.130767    0.353996
     3   -3.908787    1.855502    0.037968
     4   -0.355274    3.795331    0.066192
     5    3.880222   -2.332474   -1.279447
     6   -3.540870   -1.553624    0.736982
----------------------------------------
   Tot    0.024832    0.008838   -0.010162
----------------------------------------
   Max    3.908787
   Res    2.400623    sqrt( Sum f_i^2 / 3N )
----------------------------------------
   Max    3.908787    constrained

Stress tensor Voigt[x,y,z,yz,xz,xy] (kbar):      -24.82      -12.81       -0.36       -1.50        2.49        0.90
(Free)E + p*V (eV/cell)     -919.4397
Target enthalpy (eV/cell)     -881.6514

siesta: Stress tensor (static) (eV/Ang**3):
        -0.015238    0.000496    0.001680
         0.000496   -0.007893   -0.000983
         0.001680   -0.000983   -0.000116

siesta: Pressure (static):         12.41539892  kBar

siesta: Stress tensor (total) (eV/Ang**3):
        -0.015490    0.000563    0.001556
         0.000562   -0.007995   -0.000934
         0.001556   -0.000935   -0.000222

siesta: Pressure (total):         12.66082321  kBar
 Anneal: Kinetic Energy=    1.6978357257002284E-002
 Anneal: Velocity scale factor =    1.0134827958224257     
Anneal: Cell scale factor = 
           0.9969946    -0.0000295    -0.0001098
          -0.0000295     0.9965153     0.0000656
          -0.0001098     0.0000656     0.9960236

siesta: Temp_ion =     367.126 K

                     ====================================
                        Begin MD step =      4
                     ====================================

outcoor: Atomic coordinates (Ang):                          
    0.02861772   -0.05715977   -0.00749484   1       1  O
    0.75267995    0.69422780    0.05648787   2       2  H
   -0.77259018    0.61156074   -0.01701034   2       3  H
   -0.02003404    0.05951927    2.85656137   1       4  O
    0.65696377   -0.68955867    2.62785507   2       5  H
   -0.78294087   -0.64478831    3.03791282   2       6  H

outcell: Unit cell vectors (Ang):
        9.507396   -0.000060   -0.002190
       -0.000060    9.500992    0.001301
       -0.001754    0.001042    7.594068

outcell: Cell vector modules (Ang)   :    9.507397    9.500992    7.594069
outcell: Cell angles (23,13,12) (deg):     89.9843     90.0264     90.0007
outcell: Cell volume (Ang**3)        :    685.9698
Gamma-point calculation with multiply-connected orbital pairs
Folding of H and S implicitly performed
<dSpData1D:S at geom step 4
  <sparsity:sparsity for geom step 4
    nrows_g=12 nrows=3 sparsity=.2500 nnzs=36, refcount: 7>
  <dData1D:(new from dSpData1D) n=36, refcount: 1>
refcount: 1>
new_DM -- step:     4
Re-using DM from previous geometries...
Number of DMs in history: 1
 DM extrapolation coefficients: 
1   1.00000
New DM after history re-use:
<dSpData2D:SpM extrapolated using coords
  <sparsity:sparsity for geom step 4
    nrows_g=12 nrows=3 sparsity=.2500 nnzs=36, refcount: 9>
  <dData2D:(temp array for extrapolation) n=36 m=1, refcount: 1>
refcount: 1>
No. of atoms with KB's overlaping orbs in proc 0. Max # of overlaps:       5      11

InitMesh: MESH = 60 x 60 x 48 = 172800
InitMesh: Mesh cutoff (required, used) =   100.000   110.073 Ry
New grid distribution [1]: sub = 2
New grid distribution [2]: sub = 2
New grid distribution [3]: sub = 2
Setting up quadratic distribution...

        iscf     Eharris(eV)        E_KS(eV)     FreeEng(eV)     dDmax    Ef(eV) dHmax(eV)
   scf:    1     -926.093044     -925.441802     -925.441802  0.073058 -2.875180  0.769832
   scf:    2     -925.251369     -925.408094     -925.408094  0.076622 -3.272701  1.134233
   scf:    3     -925.508797     -925.479499     -925.479499  0.044154 -3.031710  0.057931
   scf:    4     -925.479639     -925.479570     -925.479570  0.001004 -3.024519  0.042331
   scf:    5     -925.479723     -925.479651     -925.479651  0.002395 -3.010251  0.006096
   scf:    6     -925.479657     -925.479654     -925.479654  0.000345 -3.009168  0.002048
   scf:    7     -925.479655     -925.479655     -925.479655  0.000128 -3.008843  0.000500
   scf:    8     -925.479655     -925.479655     -925.479655  0.000011 -3.008868  0.000363

SCF Convergence by DM+H criterion
max |DM_out - DM_in|         :     0.0000105953
max |H_out - H_in|      (eV) :     0.0003634701
SCF cycle converged after 8 iterations

Using DM_out to compute the final energy and forces
No. of atoms with KB's overlaping orbs in proc 0. Max # of overlaps:       5      11

siesta: E_KS(eV) =             -925.4797

siesta: Atomic forces (eV/Ang):
     1    0.227225   -1.673817    0.107456
     2    1.841914    0.939660    0.257585
     3   -2.013775    0.783084    0.091190
     4   -0.482816    1.581607    0.086394
     5    2.315108   -1.159619   -0.959909
     6   -1.854270   -0.454252    0.417061
----------------------------------------
   Tot    0.033386    0.016662   -0.000224
----------------------------------------
   Max    2.315108
   Res    1.203471    sqrt( Sum f_i^2 / 3N )
----------------------------------------
   Max    2.315108    constrained

Stress tensor Voigt[x,y,z,yz,xz,xy] (kbar):      -14.32       -5.75       -0.46       -1.59        2.05        0.86
(Free)E + p*V (eV/cell)     -922.5501
Target enthalpy (eV/cell)     -882.6648

siesta: Stress tensor (static) (eV/Ang**3):
        -0.008653    0.000572    0.001245
         0.000572   -0.003437   -0.000953
         0.001246   -0.000953   -0.000035

siesta: Pressure (static):          6.47535468  kBar

siesta: Stress tensor (total) (eV/Ang**3):
        -0.008936    0.000536    0.001279
         0.000537   -0.003587   -0.000994
         0.001279   -0.000994   -0.000289

siesta: Pressure (total):          6.84226377  kBar
 Anneal: Kinetic Energy=    5.7435745476471942E-002
 Anneal: Velocity scale factor =   0.98987331259787481     
Anneal: Cell scale factor = 
           0.9966395    -0.0000335    -0.0000987
          -0.0000335     0.9962506     0.0000722
          -0.0000987     0.0000722     0.9960298

siesta: Temp_ion =    1184.754 K

                     ====================================
                        Begin MD step =      5
                     ====================================

outcoor: Atomic coordinates (Ang):                          
    0.03131270   -0.06304126   -0.00753537   1       1  O
    0.80803922    0.71996480    0.07291213   2       2  H
   -0.83434898    0.62487037   -0.01190907   2       3  H
   -0.02173893    0.06635168    2.84537320   1       4  O
    0.69533345   -0.71920852    2.56898215   2       5  H
   -0.83460576   -0.66561411    3.05186203   2       6  H

outcell: Unit cell vectors (Ang):
        9.475447   -0.000379   -0.003119
       -0.000378    9.465369    0.001982
       -0.002497    0.001586    7.563918

outcell: Cell vector modules (Ang)   :    9.475448    9.465369    7.563919
outcell: Cell angles (23,13,12) (deg):     89.9760     90.0378     90.0046
outcell: Cell volume (Ang**3)        :    678.3972
Gamma-point calculation with multiply-connected orbital pairs
Folding of H and S implicitly performed
<dSpData1D:S at geom step 5
  <sparsity:sparsity for geom step 5
    nrows_g=12 nrows=3 sparsity=.2500 nnzs=36, refcount: 7>
  <dData1D:(new from dSpData1D) n=36, refcount: 1>
refcount: 1>
new_DM -- step:     5
Re-using DM from previous geometries...
Number of DMs in history: 1
 DM extrapolation coefficients: 
1   1.00000
New DM after history re-use:
<dSpData2D:SpM extrapolated using coords
  <sparsity:sparsity for geom step 5
    nrows_g=12 nrows=3 sparsity=.2500 nnzs=36, refcount: 9>
  <dData2D:(temp array for extrapolation) n=36 m=1, refcount: 1>
refcount: 1>
No. of atoms with KB's overlaping orbs in proc 0. Max # of overlaps:       5      11

InitMesh: MESH = 60 x 60 x 48 = 172800
InitMesh: Mesh cutoff (required, used) =   100.000   110.817 Ry
New grid distribution [1]: sub = 2
New grid distribution [2]: sub = 2
New grid distribution [3]: sub = 2
Setting up quadratic distribution...

        iscf     Eharris(eV)        E_KS(eV)     FreeEng(eV)     dDmax    Ef(eV) dHmax(eV)
   scf:    1     -926.407027     -925.650638     -925.650638  0.104011 -3.402177  1.198237
   scf:    2     -924.957622     -925.504176     -925.504176  0.130078 -4.022566  2.087199
   scf:    3     -925.843821     -925.749353     -925.749353  0.078207 -3.626724  0.091805
   scf:    4     -925.749721     -925.749544     -925.749544  0.001387 -3.613754  0.067738
   scf:    5     -925.749917     -925.749740     -925.749740  0.002941 -3.595810  0.020593
   scf:    6     -925.749785     -925.749765     -925.749765  0.001139 -3.591082  0.003472
   scf:    7     -925.749767     -925.749766     -925.749766  0.000257 -3.590323  0.000918
   scf:    8     -925.749766     -925.749766     -925.749766  0.000034 -3.590334  0.000492

SCF Convergence by DM+H criterion
max |DM_out - DM_in|         :     0.0000344107
max |H_out - H_in|      (eV) :     0.0004920310
SCF cycle converged after 8 iterations

Using DM_out to compute the final energy and forces
No. of atoms with KB's overlaping orbs in proc 0. Max # of overlaps:       5      11

siesta: E_KS(eV) =             -925.7498

siesta: Atomic forces (eV/Ang):
     1    0.057812    0.553655    0.192511
     2   -0.016019   -0.280711    0.106797
     3    0.031679   -0.285042    0.135454
     4   -0.330890   -0.801768   -0.054855
     5    0.386696    0.277431   -0.366697
     6   -0.087445    0.558242   -0.008748
----------------------------------------
   Tot    0.041833    0.021808    0.004462
----------------------------------------
   Max    0.801768
   Res    0.331130    sqrt( Sum f_i^2 / 3N )
----------------------------------------
   Max    0.801768    constrained

Stress tensor Voigt[x,y,z,yz,xz,xy] (kbar):       -2.88        1.85       -0.36       -1.33        1.16        0.47
(Free)E + p*V (eV/cell)     -925.5532
Target enthalpy (eV/cell)     -883.4075

siesta: Stress tensor (static) (eV/Ang**3):
        -0.000465    0.000345    0.000428
         0.000345    0.001631   -0.000657
         0.000428   -0.000657    0.000206

siesta: Pressure (static):         -0.73281222  kBar

siesta: Stress tensor (total) (eV/Ang**3):
        -0.001799    0.000296    0.000723
         0.000296    0.001155   -0.000831
         0.000723   -0.000831   -0.000226

siesta: Pressure (total):          0.46428697  kBar
 Anneal: Kinetic Energy=    7.4875462621115399E-002
 Anneal: Velocity scale factor =   0.98753530479513907     
Anneal: Cell scale factor = 
           0.9961492    -0.0000218    -0.0000555
          -0.0000218     0.9959299     0.0000573
          -0.0000555     0.0000572     0.9960205

siesta: Temp_ion =    1537.203 K

                     ====================================
                        Begin MD step =      6
                     ====================================

outcoor: Atomic coordinates (Ang):                          
    0.03393684   -0.06837564   -0.00745851   1       1  O
    0.86101170    0.74191956    0.08981451   2       2  H
   -0.89334219    0.63479065   -0.00572835   2       3  H
   -0.02345661    0.07242022    2.83416538   1       4  O
    0.73581659   -0.74500802    2.50828963   2       5  H
   -0.88483939   -0.68026420    3.06487608   2       6  H

outcell: Unit cell vectors (Ang):
        9.438960   -0.000584   -0.003632
       -0.000583    9.426844    0.002516
       -0.002907    0.002012    7.533818

outcell: Cell vector modules (Ang)   :    9.438961    9.426844    7.533818
outcell: Cell angles (23,13,12) (deg):     89.9694     90.0442     90.0071
outcell: Cell volume (Ang**3)        :    670.3559
Gamma-point calculation with multiply-connected orbital pairs
Folding of H and S implicitly performed
<dSpData1D:S at geom step 6
  <sparsity:sparsity for geom step 6
    nrows_g=12 nrows=3 sparsity=.2500 nnzs=36, refcount: 7>
  <dData1D:(new from dSpData1D) n=36, refcount: 1>
refcount: 1>
new_DM -- step:     6
Re-using DM from previous geometries...
Number of DMs in history: 1
 DM extrapolation coefficients: 
1   1.00000
New DM after history re-use:
<dSpData2D:SpM extrapolated using coords
  <sparsity:sparsity for geom step 6
    nrows_g=12 nrows=3 sparsity=.2500 nnzs=36, refcount: 9>
  <dData2D:(temp array for extrapolation) n=36 m=1, refcount: 1>
refcount: 1>
Note: For starting DM, Qtot, Tr[D*S] =         16.00000000         15.97730508
No. of atoms with KB's overlaping orbs in proc 0. Max # of overlaps:       5      11

InitMesh: MESH = 60 x 60 x 48 = 172800
InitMesh: Mesh cutoff (required, used) =   100.000   111.675 Ry
New grid distribution [1]: sub = 2
New grid distribution [2]: sub = 2
New grid distribution [3]: sub = 2
Setting up quadratic distribution...

        iscf     Eharris(eV)        E_KS(eV)     FreeEng(eV)     dDmax    Ef(eV) dHmax(eV)
   scf:    1     -926.055296     -925.457461     -925.457461  0.092876 -0.766413  1.209039
   scf:    2     -924.484307     -925.229160     -925.229160  0.144827 -4.533774  2.388546
   scf:    3     -925.680292     -925.561081     -925.561081  0.091326 -4.119254  0.096595
   scf:    4     -925.561557     -925.561335     -925.561335  0.001338 -4.105891  0.071088
   scf:    5     -925.561767     -925.561562     -925.561562  0.002730 -4.090109  0.024735
   scf:    6     -925.561625     -925.561596     -925.561596  0.001347 -4.084306  0.003204
   scf:    7     -925.561598     -925.561597     -925.561597  0.000206 -4.083653  0.000982
   scf:    8     -925.561597     -925.561597     -925.561597  0.000038 -4.083610  0.000571

SCF Convergence by DM+H criterion
max |DM_out - DM_in|         :     0.0000376633
max |H_out - H_in|      (eV) :     0.0005713065
SCF cycle converged after 8 iterations

Using DM_out to compute the final energy and forces
No. of atoms with KB's overlaping orbs in proc 0. Max # of overlaps:       5      11

siesta: E_KS(eV) =             -925.5616

siesta: Atomic forces (eV/Ang):
     1   -0.052821    1.888857    0.275088
     2   -1.267615   -1.037571   -0.022924
     3    1.414271   -0.915348    0.157936
     4   -0.178912   -2.283299   -0.208377
     5   -0.975372    1.223515    0.147196
     6    1.110374    1.147077   -0.343907
----------------------------------------
   Tot    0.049926    0.023229    0.005013
----------------------------------------
   Max    2.283299
   Res    1.044005    sqrt( Sum f_i^2 / 3N )
----------------------------------------
   Max    2.283299    constrained

Stress tensor Voigt[x,y,z,yz,xz,xy] (kbar):        6.67        7.28       -0.04       -0.87        0.12        0.18
(Free)E + p*V (eV/cell)     -927.5025
Target enthalpy (eV/cell)     -883.7213

siesta: Stress tensor (static) (eV/Ang**3):
         0.006038    0.000116   -0.000362
         0.000116    0.005083   -0.000307
        -0.000362   -0.000307    0.000506

siesta: Pressure (static):         -6.20946528  kBar

siesta: Stress tensor (total) (eV/Ang**3):
         0.004166    0.000112    0.000077
         0.000112    0.004543   -0.000545
         0.000078   -0.000544   -0.000023

siesta: Pressure (total):         -4.63875858  kBar
 Anneal: Kinetic Energy=    5.7232732882054986E-002
 Anneal: Velocity scale factor =   0.98990887602002675     
Anneal: Cell scale factor = 
           0.9957063    -0.0000086    -0.0000019
          -0.0000086     0.9956939     0.0000319
          -0.0000019     0.0000319     0.9960004

siesta: Temp_ion =    1180.651 K

                     ====================================
                        Begin MD step =      7
                     ====================================

outcoor: Atomic coordinates (Ang):                          
    0.03643640   -0.07241244   -0.00721655   1       1  O
    0.90008395    0.75322235    0.10604306   2       2  H
   -0.93684500    0.63557178    0.00171265   2       3  H
   -0.02507033    0.07686630    2.82281618   1       4  O
    0.76568856   -0.75833924    2.45044587   2       5  H
   -0.92255698   -0.68353015    3.07389667   2       6  H

outcell: Unit cell vectors (Ang):
        9.398431   -0.000663   -0.003636
       -0.000662    9.386250    0.002807
       -0.002909    0.002244    7.503685

outcell: Cell vector modules (Ang)   :    9.398432    9.386251    7.503686
outcell: Cell angles (23,13,12) (deg):     89.9657     90.0444     90.0081
outcell: Cell volume (Ang**3)        :    661.9452
Gamma-point calculation with multiply-connected orbital pairs
Folding of H and S implicitly performed
<dSpData1D:S at geom step 7
  <sparsity:sparsity for geom step 7
    nrows_g=12 nrows=3 sparsity=.2500 nnzs=36, refcount: 7>
  <dData1D:(new from dSpData1D) n=36, refcount: 1>
refcount: 1>
new_DM -- step:     7
Re-using DM from previous geometries...
Number of DMs in history: 1
 DM extrapolation coefficients: 
1   1.00000
New DM after history re-use:
<dSpData2D:SpM extrapolated using coords
  <sparsity:sparsity for geom step 7
    nrows_g=12 nrows=3 sparsity=.2500 nnzs=36, refcount: 9>
  <dData2D:(temp array for extrapolation) n=36 m=1, refcount: 1>
refcount: 1>
Note: For starting DM, Qtot, Tr[D*S] =         16.00000000         15.97874764
No. of atoms with KB's overlaping orbs in proc 0. Max # of overlaps:       5      11

InitMesh: MESH = 60 x 60 x 48 = 172800
InitMesh: Mesh cutoff (required, used) =   100.000   112.640 Ry
New grid distribution [1]: sub = 2
New grid distribution [2]: sub = 2
New grid distribution [3]: sub = 2
Setting up quadratic distribution...

        iscf     Eharris(eV)        E_KS(eV)     FreeEng(eV)     dDmax    Ef(eV) dHmax(eV)
   scf:    1     -925.600905     -925.191090     -925.191090  0.055525 -1.239737  0.848617
   scf:    2     -924.599733     -925.044552     -925.044552  0.107097 -1.646750  1.807275
   scf:    3     -925.309177     -925.242598     -925.242598  0.070306 -1.369459  0.073913
   scf:    4     -925.242912     -925.242764     -925.242764  0.001045 -1.361924  0.053380
   scf:    5     -925.243043     -925.242912     -925.242912  0.002200 -1.351482  0.013657
   scf:    6     -925.242932     -925.242924     -925.242924  0.000717 -1.348962  0.002053
   scf:    7     -925.242924     -925.242924     -925.242924  0.000096 -1.348673  0.000885

SCF Convergence by DM+H criterion
max |DM_out - DM_in|         :     0.0000963483
max |H_out - H_in|      (eV) :     0.0008851391
SCF cycle converged after 7 iterations

Using DM_out to compute the final energy and forces
No. of atoms with KB's overlaping orbs in proc 0. Max # of overlaps:       5      11

siesta: E_KS(eV) =             -925.2429

siesta: Atomic forces (eV/Ang):
     1   -0.101738    2.458837    0.331444
     2   -1.941672   -1.382689   -0.110779
     3    2.156473   -1.177828    0.167210
     4   -0.080364   -2.930650   -0.315789
     5   -1.737155    1.675096    0.487191
     6    1.759415    1.380309   -0.555698
----------------------------------------
   Tot    0.054959    0.023075    0.003579
----------------------------------------
   Max    2.930650
   Res    1.452802    sqrt( Sum f_i^2 / 3N )
----------------------------------------
   Max    2.930650    constrained

Stress tensor Voigt[x,y,z,yz,xz,xy] (kbar):       13.92       10.34        0.45       -0.35       -0.89       -0.04
(Free)E + p*V (eV/cell)     -928.6460
Target enthalpy (eV/cell)     -883.9276

siesta: Stress tensor (static) (eV/Ang**3):
         0.010149   -0.000041   -0.000946
        -0.000041    0.006765   -0.000027
        -0.000946   -0.000027    0.000795

siesta: Pressure (static):         -9.45782436  kBar

siesta: Stress tensor (total) (eV/Ang**3):
         0.008688   -0.000022   -0.000553
        -0.000022    0.006456   -0.000219
        -0.000553   -0.000218    0.000280

siesta: Pressure (total):         -8.23693331  kBar
 Anneal: Kinetic Energy=    2.9429528699602244E-002
 Anneal: Velocity scale factor =   0.99936898916030359     
Anneal: Cell scale factor = 
           0.9953934     0.0000013     0.0000456
           0.0000013     0.9955722     0.0000066
           0.0000456     0.0000066     0.9959766

siesta: Temp_ion =     618.759 K

                     ====================================
                        Begin MD step =      8
                     ====================================

outcoor: Atomic coordinates (Ang):                          
    0.03883627   -0.07492254   -0.00677404   1       1  O
    0.91998088    0.75114080    0.12108635   2       2  H
   -0.95905006    0.62502646    0.01061617   2       3  H
   -0.02657277    0.07942688    2.81125281   1       4  O
    0.77856517   -0.75553023    2.39772504   2       5  H
   -0.94268791   -0.67360381    3.07737372   2       6  H

outcell: Unit cell vectors (Ang):
        9.355137   -0.000648   -0.003193
       -0.000646    9.344690    0.002858
       -0.002554    0.002283    7.473495

outcell: Cell vector modules (Ang)   :    9.355138    9.344690    7.473496
outcell: Cell angles (23,13,12) (deg):     89.9650     90.0391     90.0079
outcell: Cell volume (Ang**3)        :    653.3392
Gamma-point calculation with multiply-connected orbital pairs
Folding of H and S implicitly performed
<dSpData1D:S at geom step 8
  <sparsity:sparsity for geom step 8
    nrows_g=12 nrows=3 sparsity=.2500 nnzs=36, refcount: 7>
  <dData1D:(new from dSpData1D) n=36, refcount: 1>
refcount: 1>
new_DM -- step:     8
Re-using DM from previous geometries...
Number of DMs in history: 1
 DM extrapolation coefficients: 
1   1.00000
New DM after history re-use:
<dSpData2D:SpM extrapolated using coords
  <sparsity:sparsity for geom step 8
    nrows_g=12 nrows=3 sparsity=.2500 nnzs=36, refcount: 9>
  <dData2D:(temp array for extrapolation) n=36 m=1, refcount: 1>
refcount: 1>
No. of atoms with KB's overlaping orbs in proc 0. Max # of overlaps:       5      12

InitMesh: MESH = 60 x 60 x 48 = 172800
InitMesh: Mesh cutoff (required, used) =   100.000   113.685 Ry
New grid distribution [1]: sub = 2
New grid distribution [2]: sub = 2
New grid distribution [3]: sub = 2
Setting up quadratic distribution...

        iscf     Eharris(eV)        E_KS(eV)     FreeEng(eV)     dDmax    Ef(eV) dHmax(eV)
   scf:    1     -925.247845     -925.069658     -925.069658  0.024728 -1.450472  0.287741
   scf:    2     -925.006031     -925.053781     -925.053781  0.034797 -1.576698  0.606351
   scf:    3     -925.081950     -925.075134     -925.075134  0.023324 -1.489776  0.031956
   scf:    4     -925.075234     -925.075185     -925.075185  0.000855 -1.487529  0.022443
   scf:    5     -925.075268     -925.075231     -925.075231  0.001885 -1.482862  0.002578
   scf:    6     -925.075232     -925.075232     -925.075232  0.000107 -1.482698  0.001416
   scf:    7     -925.075232     -925.075232     -925.075232  0.000063 -1.482581  0.000501

SCF Convergence by DM+H criterion
max |DM_out - DM_in|         :     0.0000630424
max |H_out - H_in|      (eV) :     0.0005014880
SCF cycle converged after 7 iterations

Using DM_out to compute the final energy and forces
No. of atoms with KB's overlaping orbs in proc 0. Max # of overlaps:       5      12

siesta: E_KS(eV) =             -925.0752

siesta: Atomic forces (eV/Ang):
     1   -0.109058    2.518629    0.356010
     2   -2.210198   -1.445058   -0.158248
     3    2.451828   -1.201406    0.173624
     4    0.001381   -3.012740   -0.378155
     5   -2.089778    1.794962    0.676343
     6    2.014343    1.367386   -0.667116
----------------------------------------
   Tot    0.058519    0.021774    0.002458
----------------------------------------
   Max    3.012740
   Res    1.574163    sqrt( Sum f_i^2 / 3N )
----------------------------------------
   Max    3.012740    constrained

Stress tensor Voigt[x,y,z,yz,xz,xy] (kbar):       18.30       11.17        0.99        0.12       -1.69       -0.22
(Free)E + p*V (eV/cell)     -929.2145
Target enthalpy (eV/cell)     -884.2970

siesta: Stress tensor (static) (eV/Ang**3):
         0.012108   -0.000161   -0.001293
        -0.000161    0.007061    0.000148
        -0.001293    0.000149    0.001051

siesta: Pressure (static):        -10.79883553  kBar

siesta: Stress tensor (total) (eV/Ang**3):
         0.011420   -0.000140   -0.001057
        -0.000140    0.006971    0.000072
        -0.001057    0.000073    0.000617

siesta: Pressure (total):        -10.15079156  kBar
 Anneal: Kinetic Energy=    1.3245360813889948E-002
 Anneal: Velocity scale factor =    1.0227765194574450     
Anneal: Cell scale factor = 
           0.9952326     0.0000085     0.0000791
           0.0000086     0.9955537    -0.0000137
           0.0000791    -0.0000137     0.9959546

siesta: Temp_ion =     291.683 K

                     ====================================
                        Begin MD step =      9
                     ====================================

outcoor: Atomic coordinates (Ang):                          
    0.04125537   -0.07598889   -0.00609428   1       1  O
    0.91908995    0.73502579    0.13517775   2       2  H
   -0.95817965    0.60248332    0.02150044   2       3  H
   -0.02803984    0.08018524    2.79943045   1       4  O
    0.77162644   -0.73529114    2.35002709   2       5  H
   -0.94384355   -0.65016982    3.07490144   2       6  H

outcell: Unit cell vectors (Ang):
        9.310537   -0.000566   -0.002440
       -0.000563    9.303140    0.002719
       -0.001951    0.002171    7.443261

outcell: Cell vector modules (Ang)   :    9.310537    9.303141    7.443262
outcell: Cell angles (23,13,12) (deg):     89.9665     90.0300     90.0070
outcell: Cell volume (Ang**3)        :    644.7146
Gamma-point calculation with multiply-connected orbital pairs
Folding of H and S implicitly performed
<dSpData1D:S at geom step 9
  <sparsity:sparsity for geom step 9
    nrows_g=12 nrows=3 sparsity=.2500 nnzs=36, refcount: 7>
  <dData1D:(new from dSpData1D) n=36, refcount: 1>
refcount: 1>
new_DM -- step:     9
Re-using DM from previous geometries...
Number of DMs in history: 1
 DM extrapolation coefficients: 
1   1.00000
New DM after history re-use:
<dSpData2D:SpM extrapolated using coords
  <sparsity:sparsity for geom step 9
    nrows_g=12 nrows=3 sparsity=.2500 nnzs=36, refcount: 9>
  <dData2D:(temp array for extrapolation) n=36 m=1, refcount: 1>
refcount: 1>
No. of atoms with KB's overlaping orbs in proc 0. Max # of overlaps:       5      12

InitMesh: MESH = 60 x 60 x 48 = 172800
InitMesh: Mesh cutoff (required, used) =   100.000   114.777 Ry
New grid distribution [1]: sub = 2
New grid distribution [2]: sub = 2
New grid distribution [3]: sub = 2
Setting up quadratic distribution...

        iscf     Eharris(eV)        E_KS(eV)     FreeEng(eV)     dDmax    Ef(eV) dHmax(eV)
   scf:    1     -924.980757     -925.158257     -925.158257  0.043102 -1.383057  0.421180
   scf:    2     -925.041182     -925.128974     -925.128974  0.052951 -1.191274  0.856818
   scf:    3     -925.180488     -925.168094     -925.168094  0.035512 -1.325913  0.026145
   scf:    4     -925.168200     -925.168146     -925.168146  0.000940 -1.327672  0.018145
   scf:    5     -925.168234     -925.168195     -925.168195  0.002093 -1.332249  0.003111
   scf:    6     -925.168196     -925.168196     -925.168196  0.000088 -1.332700  0.001291
   scf:    7     -925.168196     -925.168196     -925.168196  0.000072 -1.332965  0.000579

SCF Convergence by DM+H criterion
max |DM_out - DM_in|         :     0.0000716928
max |H_out - H_in|      (eV) :     0.0005788393
SCF cycle converged after 7 iterations

Using DM_out to compute the final energy and forces
No. of atoms with KB's overlaping orbs in proc 0. Max # of overlaps:       5      12

siesta: E_KS(eV) =             -925.1682

siesta: Atomic forces (eV/Ang):
     1   -0.083120    2.174784    0.343805
     2   -2.158197   -1.278632   -0.165388
     3    2.393843   -1.040420    0.181720
     4    0.114966   -2.660393   -0.406743
     5   -2.157413    1.676649    0.735539
     6    1.950980    1.148677   -0.690344
----------------------------------------
   Tot    0.061059    0.020665   -0.001411
----------------------------------------
   Max    2.660393
   Res    1.469810    sqrt( Sum f_i^2 / 3N )
----------------------------------------
   Max    2.660393    constrained

Stress tensor Voigt[x,y,z,yz,xz,xy] (kbar):       19.13        9.78        1.45        0.44       -2.13       -0.43
(Free)E + p*V (eV/cell)     -929.2401
Target enthalpy (eV/cell)     -884.9283

siesta: Stress tensor (static) (eV/Ang**3):
         0.012076   -0.000295   -0.001392
        -0.000296    0.006204    0.000207
        -0.001392    0.000208    0.001247

siesta: Pressure (static):        -10.42881891  kBar

siesta: Stress tensor (total) (eV/Ang**3):
         0.011940   -0.000268   -0.001333
        -0.000268    0.006106    0.000272
        -0.001333    0.000273    0.000902

siesta: Pressure (total):        -10.11917912  kBar
 Anneal: Kinetic Energy=    1.6597316312011993E-002
 Anneal: Velocity scale factor =    1.0142430408616738     
Anneal: Cell scale factor = 
           0.9952309     0.0000151     0.0000950
           0.0000152     0.9956266    -0.0000266
           0.0000950    -0.0000267     0.9959369

siesta: Temp_ion =     359.425 K

                     ====================================
                        Begin MD step =     10
                     ====================================

outcoor: Atomic coordinates (Ang):                          
    0.04367323   -0.07576483   -0.00518987   1       1  O
    0.89744014    0.70637387    0.14796790   2       2  H
   -0.93426416    0.56954713    0.03434493   2       3  H
   -0.02942848    0.07931719    2.78734612   1       4  O
    0.74382074   -0.69860823    2.30868487   2       5  H
   -0.92623489   -0.61533899    3.06594749   2       6  H

outcell: Unit cell vectors (Ang):
        9.266134   -0.000422   -0.001545
       -0.000419    9.262454    0.002460
       -0.001234    0.001963    7.413018

outcell: Cell vector modules (Ang)   :    9.266134    9.262454    7.413019
outcell: Cell angles (23,13,12) (deg):     89.9696     90.0191     90.0052
outcell: Cell volume (Ang**3)        :    636.2381
Gamma-point calculation with multiply-connected orbital pairs
Folding of H and S implicitly performed
<dSpData1D:S at geom step 10
  <sparsity:sparsity for geom step 10
    nrows_g=12 nrows=3 sparsity=.2500 nnzs=36, refcount: 7>
  <dData1D:(new from dSpData1D) n=36, refcount: 1>
refcount: 1>
new_DM -- step:    10
Re-using DM from previous geometries...
Number of DMs in history: 1
 DM extrapolation coefficients: 
1   1.00000
New DM after history re-use:
<dSpData2D:SpM extrapolated using coords
  <sparsity:sparsity for geom step 10
    nrows_g=12 nrows=3 sparsity=.2500 nnzs=36, refcount: 9>
  <dData2D:(temp array for extrapolation) n=36 m=1, refcount: 1>
refcount: 1>
Note: For starting DM, Qtot, Tr[D*S] =         16.00000000         16.02989659
No. of atoms with KB's overlaping orbs in proc 0. Max # of overlaps:       5      12

InitMesh: MESH = 60 x 60 x 48 = 172800
InitMesh: Mesh cutoff (required, used) =   100.000   115.876 Ry
New grid distribution [1]: sub = 2
New grid distribution [2]: sub = 2
New grid distribution [3]: sub = 2
Setting up quadratic distribution...

        iscf     Eharris(eV)        E_KS(eV)     FreeEng(eV)     dDmax    Ef(eV) dHmax(eV)
   scf:    1     -924.764832     -925.422346     -925.422346  0.089383 -4.169068  0.974269
   scf:    2     -924.835583     -925.281036     -925.281036  0.117336 -2.107959  1.899240
   scf:    3     -925.544583     -925.479426     -925.479426  0.077819 -4.010641  0.076816
   scf:    4     -925.479834     -925.479638     -925.479638  0.001655 -4.015415  0.053433
   scf:    5     -925.479952     -925.479810     -925.479810  0.003119 -4.028948  0.012264
   scf:    6     -925.479820     -925.479815     -925.479815  0.000504 -4.033002  0.003883
   scf:    7     -925.479816     -925.479816     -925.479816  0.000105 -4.033962  0.001438
   scf:    8     -925.479816     -925.479816     -925.479816  0.000038 -4.034049  0.001045
   scf:    9     -925.479816     -925.479816     -925.479816  0.000046 -4.034063  0.000434

SCF Convergence by DM+H criterion
max |DM_out - DM_in|         :     0.0000457245
max |H_out - H_in|      (eV) :     0.0004337189
SCF cycle converged after 9 iterations

Using DM_out to compute the final energy and forces
No. of atoms with KB's overlaping orbs in proc 0. Max # of overlaps:       5      12

siesta: E_KS(eV) =             -925.4798

siesta: Atomic forces (eV/Ang):
     1   -0.015587    1.391609    0.272233
     2   -1.740142   -0.857633   -0.113839
     3    1.927516   -0.683945    0.202885
     4    0.299397   -1.864498   -0.391935
     5   -1.936674    1.322964    0.628599
     6    1.529757    0.710187   -0.602134
----------------------------------------
   Tot    0.064267    0.018685   -0.004191
----------------------------------------
   Max    1.936674
   Res    1.126315    sqrt( Sum f_i^2 / 3N )
----------------------------------------
   Max    1.936674    constrained

Stress tensor Voigt[x,y,z,yz,xz,xy] (kbar):       15.55        6.17        1.71        0.49       -2.00       -0.67
(Free)E + p*V (eV/cell)     -928.5803
Target enthalpy (eV/cell)     -885.7690

siesta: Stress tensor (static) (eV/Ang**3):
         0.009782   -0.000480   -0.001159
        -0.000480    0.004232    0.000093
        -0.001159    0.000094    0.001330

siesta: Pressure (static):         -8.19433055  kBar

siesta: Stress tensor (total) (eV/Ang**3):
         0.009704   -0.000420   -0.001250
        -0.000420    0.003851    0.000303
        -0.001250    0.000304    0.001065

siesta: Pressure (total):         -7.80767053  kBar
 Anneal: Kinetic Energy=    3.5488414105826344E-002
 Anneal: Velocity scale factor =   0.99605453150402523     
Anneal: Cell scale factor = 
           0.9954060     0.0000225     0.0000860
           0.0000226     0.9957795    -0.0000264
           0.0000860    -0.0000264     0.9959274

siesta: Temp_ion =     741.207 K

siesta: Program's energy decomposition (eV):
siesta: Ebs     =      -183.282066
siesta: Eions   =      1621.026762
siesta: Ena     =       347.993857
siesta: Ekin    =       681.044565
siesta: Enl     =      -112.048381
siesta: Eso     =         0.000000
siesta: Edftu   =         0.000000
siesta: DEna    =        -6.216578
siesta: DUscf   =         3.087798
siesta: DUext   =         0.000000
siesta: Ex      =      -193.585796
siesta: Ec      =       -24.728519
siesta: Exc     =      -218.314315
siesta: EbV     =         0.000000
siesta: eta*DQ  =         0.000000
siesta: Emadel  =         0.000000
siesta: Emeta   =         0.000000
siesta: Emolmec =         0.000000
siesta: Ekinion =         0.479042
siesta: Eharris =      -925.000774
siesta: Etot    =      -925.000774
siesta: FreeEng =      -925.000774

siesta: Final energy (eV):
siesta:  Band Struct. =    -183.282066
siesta:       Kinetic =     681.044565
siesta:       Hartree =     900.340556
siesta:         Edftu =       0.000000
siesta:       Eso     =       0.000000
siesta:    Ext. field =       0.000000
siesta:         Exch. =    -193.585796
siesta:         Corr. =     -24.728519
siesta:     Bulk bias =       0.000000
siesta:   Exch.-corr. =    -218.314315
siesta:  Ion-electron =   -2379.007029
siesta:       Ion-ion =      90.456407
siesta:       Ekinion =       0.479042
siesta: D3 dispersion =       0.000000
siesta:         Total =    -925.000774
siesta:         Fermi =      -4.034063

siesta: Atomic forces (eV/Ang):
siesta:      1   -0.015587    1.391609    0.272233
siesta:      2   -1.740142   -0.857633   -0.113839
siesta:      3    1.927516   -0.683945    0.202885
siesta:      4    0.299397   -1.864498   -0.391935
siesta:      5   -1.936674    1.322964    0.628599
siesta:      6    1.529757    0.710187   -0.602134
siesta: ----------------------------------------
siesta:    Tot    0.064267    0.018685   -0.004191

siesta: Stress tensor (static) (eV/Ang**3):
siesta:     0.009782   -0.000480   -0.001159
siesta:    -0.000480    0.004232    0.000093
siesta:    -0.001159    0.000094    0.001330

siesta: Cell volume =        636.238119 Ang**3

siesta: Pressure (static):
siesta:                Solid            Molecule  Units
siesta:          -0.00005570          0.00000324  Ry/Bohr**3
siesta:          -0.00511450          0.00029743  eV/Ang**3
siesta:          -8.19433055          0.47653890  kBar
(Free)E+ p_basis*V_orbitals  =        -924.829802
(Free)Eharris+ p_basis*V_orbitals  =        -924.829802

siesta: Electric dipole (a.u.)  =   -0.131401    0.020906   -0.000027
siesta: Electric dipole (Debye) =   -0.333988    0.053137   -0.000070

cite: Please see "anneal_pt.bib" for an exhaustive BiBTeX file.
cite: Please clearly indicate Siesta version in published work: 5.1-MaX-50-g4df4b742f-dirty
cite: This calculation has made use of the following articles
cite: which are encouraged to be cited in a published work.
        Primary SIESTA paper
          DOI: www.doi.org/10.1088/0953-8984/14/11/302


>> End of run:   5-SEP-2024  22:07:59
Job completed
