Siesta Version  : 5.0.0-alpha-123-gfb8fd7d02
Architecture    : ----
Compiler version: GNU-11.4.0
Compiler flags  : -fallow-argument-mismatch;-O3 -march=native
PP flags        : ----
Libraries       : ----
Parallelisations: none
GEMM3M support
NetCDF support
NetCDF-4 support
Lua support

Runtime information:
* Directory : /home/fnpedron/Siesta/siesta-dev/Tests/09.MolecularDynamics/work/anneal_restart
* Running in serial mode.
>> Start of run:  28-SEP-2023  15:37:41

                           *********************** 
                           *  WELCOME TO SIESTA  * 
                           *********************** 

reinit: Reading from standard input
reinit: Dumping input in INPUT_TMP.55161
************************** Dump of input data file ****************************
%include ../../basejob.fdf
SystemLabel           anneal
MD.TypeOfRun          anneal
MD.AnnealOption       Temperature
MD.InitialTemperature 100 K
MD.TargetTemperature  600 K
MD.TauRelax           25 fs
************************** End of input data file *****************************

reinit: -----------------------------------------------------------------------
reinit: System Name: Water molecules MD
reinit: -----------------------------------------------------------------------
reinit: System Label: anneal
reinit: -----------------------------------------------------------------------

initatom: Reading input for the pseudopotentials and atomic orbitals ----------
Species number:   1 Atomic number:    8 Label: O
Species number:   2 Atomic number:    1 Label: H


---- Processing specs for species: O
Ground state valence configuration:   2s02  2p04
Reading pseudopotential information in formatted form from:
  /home/fnpedron/Siesta/siesta-dev/Tests/Pseudos/O.psf

---- Processing specs for species: H
Ground state valence configuration:   1s01
Reading pseudopotential information in formatted form from:
  /home/fnpedron/Siesta/siesta-dev/Tests/Pseudos/H.psf

---- Pseudopotential check for O 

Pseudized shells:
2s( 2.00) rc: 1.14
2p( 4.00) rc: 1.14
3d( 0.00) rc: 1.14
4f( 0.00) rc: 1.14
Valence configuration for ps generation: (assumed as above)

---- Pseudopotential check for H 

Pseudized shells:
1s( 1.00) rc: 1.25
2p( 0.00) rc: 1.25
3d( 0.00) rc: 1.25
4f( 0.00) rc: 1.25
Valence configuration for ps generation: (assumed as above)
For O, standard SIESTA heuristics set lmxkb to 2
 (one more than the basis l, including polarization orbitals).
Use PS.lmax or PS.KBprojectors blocks to override.
For H, standard SIESTA heuristics set lmxkb to 1
 (one more than the basis l, including polarization orbitals).
Use PS.lmax or PS.KBprojectors blocks to override.

<basis_specs>
===============================================================================
O                    Z=   8    Mass=  15.999        Charge= 0.17977+309
Lmxo=1 Lmxkb= 2    BasisType=split      Semic=F
L=0  Nsemic=0  Cnfigmx=2
          i=1  nzeta=1  polorb=0  (2s)
            splnorm:   0.15000    
               vcte:    40.000    
               rinn:  -0.90000    
               qcoe:    0.0000    
               qyuk:    0.0000    
               qwid:   0.10000E-01
                rcs:    0.0000    
            lambdas:    1.0000    
L=1  Nsemic=0  Cnfigmx=2
          i=1  nzeta=1  polorb=0  (2p)
            splnorm:   0.15000    
               vcte:    40.000    
               rinn:  -0.90000    
               qcoe:    0.0000    
               qyuk:    0.0000    
               qwid:   0.10000E-01
                rcs:    0.0000    
            lambdas:    1.0000    
-------------------------------------------------------------------------------
L=0  Nkbl=1  erefs: 0.17977+309
L=1  Nkbl=1  erefs: 0.17977+309
L=2  Nkbl=1  erefs: 0.17977+309
===============================================================================
</basis_specs>

Using PAO.SplitTailNorm
atom: Called for O                     (Z =   8)
Maximum radius (at nrval) set to   50.00000 8518

read_vps: Pseudopotential generation method:
read_vps: ATM3      Troullier-Martins                       
Valence charge in pseudo generation:    6.00000

xc_check: Exchange-correlation functional:
xc_check: Ceperley-Alder
V l=0 = -2*Zval/r beyond r=  1.1366
V l=1 = -2*Zval/r beyond r=  1.1332
V l=2 = -2*Zval/r beyond r=  1.1298
All V_l potentials equal beyond r=  1.1355
This should be close to max(r_c) in ps generation
All pots = -2*Zval/r beyond r=  1.1366
Using small-core scheme (local charge) for Vlocal

VLOCAL_FROM_CHLOCAL: 99.0% of the norm of Vloc inside     33.667 Ry
VLOCAL_FROM_CHLOCAL: 99.9% of the norm of Vloc inside     76.727 Ry
atom: Maximum radius for chlocal:    1.37241
atom: Maximum radius for r*vlocal+2*Zval:    1.25469

KBgen: Kleinman-Bylander projectors: 
GHOST: No ghost state for L =  0
   l= 0   rc=  1.293209   el= -1.742414   Ekb=  9.076872   kbcos=  0.325320
GHOST: No ghost state for L =  1
   l= 1   rc=  1.284119   el= -0.676589   Ekb= -8.194485   kbcos= -0.396010
GHOST: No ghost state for L =  2
   l= 2   rc=  1.433152   el=  0.013307   Ekb= -2.071665   kbcos= -0.003690

KBgen: Total number of Kleinman-Bylander projectors:   9
atom: -------------------------------------------------------------------------

atom: SANKEY-TYPE ORBITALS:

SPLIT: Orbitals with angular momentum L= 0

SPLIT: Basis orbitals for state 2s

SPLIT: PAO cut-off radius determined from an
SPLIT: energy shift=  0.010000 Ry
Split based on tail norm

   izeta = 1
                 lambda =    1.000000
                     rc =    3.560943
                 energy =   -1.731321
                kinetic =    1.587329
    potential(screened) =   -3.318651
       potential(ionic) =  -11.260325

SPLIT: Orbitals with angular momentum L= 1

SPLIT: Basis orbitals for state 2p

SPLIT: PAO cut-off radius determined from an
SPLIT: energy shift=  0.010000 Ry
Split based on tail norm

   izeta = 1
                 lambda =    1.000000
                     rc =    4.290924
                 energy =   -0.665565
                kinetic =    4.934810
    potential(screened) =   -5.600376
       potential(ionic) =  -13.346429
atom: Total number of Sankey-type orbitals:  4

atm_pop: Valence configuration (for local Pseudopot. screening):
 2s( 2.00)                                                            
 2p( 4.00)                                                            
Vna: chval, zval:    6.00000   6.00000

Vna:  Cut-off radius for the neutral-atom potential:   4.290924

atom: _________________________________________________________________________

<basis_specs>
===============================================================================
H                    Z=   1    Mass=  1.0080        Charge= 0.17977+309
Lmxo=0 Lmxkb= 1    BasisType=split      Semic=F
L=0  Nsemic=0  Cnfigmx=1
          i=1  nzeta=1  polorb=0  (1s)
            splnorm:   0.15000    
               vcte:    40.000    
               rinn:  -0.90000    
               qcoe:    0.0000    
               qyuk:    0.0000    
               qwid:   0.10000E-01
                rcs:    0.0000    
            lambdas:    1.0000    
-------------------------------------------------------------------------------
L=0  Nkbl=1  erefs: 0.17977+309
L=1  Nkbl=1  erefs: 0.17977+309
===============================================================================
</basis_specs>

Using PAO.SplitTailNorm
atom: Called for H                     (Z =   1)
Maximum radius (at nrval) set to   50.00000 8518

read_vps: Pseudopotential generation method:
read_vps: ATM3      Troullier-Martins                       
Valence charge in pseudo generation:    1.00000

xc_check: Exchange-correlation functional:
xc_check: Ceperley-Alder
V l=0 = -2*Zval/r beyond r=  1.2384
V l=1 = -2*Zval/r beyond r=  1.2321
All V_l potentials equal beyond r=  1.2371
This should be close to max(r_c) in ps generation
All pots = -2*Zval/r beyond r=  1.2384
Using small-core scheme (local charge) for Vlocal

VLOCAL_FROM_CHLOCAL: 99.0% of the norm of Vloc inside     28.363 Ry
VLOCAL_FROM_CHLOCAL: 99.9% of the norm of Vloc inside     64.639 Ry
atom: Maximum radius for chlocal:    1.44620
atom: Maximum radius for r*vlocal+2*Zval:    1.31026

KBgen: Kleinman-Bylander projectors: 
GHOST: No ghost state for L =  0
   l= 0   rc=  1.364142   el= -0.467325   Ekb= -2.009475   kbcos= -0.336680
GHOST: No ghost state for L =  1
   l= 1   rc=  1.430269   el=  0.007562   Ekb= -0.503817   kbcos= -0.022554

KBgen: Total number of Kleinman-Bylander projectors:   4
atom: -------------------------------------------------------------------------

atom: SANKEY-TYPE ORBITALS:

SPLIT: Orbitals with angular momentum L= 0

SPLIT: Basis orbitals for state 1s

SPLIT: PAO cut-off radius determined from an
SPLIT: energy shift=  0.010000 Ry
Split based on tail norm

   izeta = 1
                 lambda =    1.000000
                     rc =    5.285354
                 energy =   -0.456120
                kinetic =    0.900445
    potential(screened) =   -1.356565
       potential(ionic) =   -1.890080
atom: Total number of Sankey-type orbitals:  1

atm_pop: Valence configuration (for local Pseudopot. screening):
 1s( 1.00)                                                            
Vna: chval, zval:    1.00000   1.00000

Vna:  Cut-off radius for the neutral-atom potential:   5.285354

atom: _________________________________________________________________________

prinput: Basis input 

PAO.BasisType split     

%block ChemicalSpeciesLabel
    1    8 O                       # Species index, atomic number, species label
    2    1 H                       # Species index, atomic number, species label
%endblock ChemicalSpeciesLabel

%block PAO.Basis                 # Define Basis set
# WARNING: This information might be incomplete!
O                     2                    # Species label, number of l-shells
 n=2   0   1                         # n, l, Nzeta 
   3.561   
   1.000   
 n=2   1   1                         # n, l, Nzeta 
   4.291   
   1.000   
H                     1                    # Species label, number of l-shells
 n=1   0   1                         # n, l, Nzeta 
   5.285   
   1.000   
%endblock PAO.Basis

prinput: ----------------------------------------------------------------------

Dumping basis to NetCDF file O.ion.nc
Dumping basis to NetCDF file H.ion.nc
coor:   Atomic-coordinates input format  =     Cartesian coordinates
coor:                                          (in Angstroms)

ioxv: Reading coordinates and velocities from file
! Info in XV file prevails over previous structure input

siesta: Atomic coordinates (Bohr) and species
siesta:      0.04165  -0.09251  -0.01445  1        1
siesta:      1.39527   1.32980   0.04017  2        2
siesta:     -1.42047   1.22006  -0.06131  2        3
siesta:     -0.03136   0.09113   5.73868  1        4
siesta:      1.34021  -1.31279   5.42040  2        5
siesta:     -1.47477  -1.20988   5.96439  2        6

siesta: System type = chain     

initatomlists: Number of atoms, orbitals, and projectors:      6    12    34

siesta: ******************** Simulation parameters ****************************
siesta:
siesta: The following are some of the parameters of the simulation.
siesta: A complete list of the parameters used, including default values,
siesta: can be found in file out.fdf
siesta:
redata: Spin configuration                          = none
redata: Number of spin components                   = 1
redata: Time-Reversal Symmetry                      = T
redata: Spin spiral                                 = F
redata: Long output                                 =   F
redata: Number of Atomic Species                    =        2
redata: Charge density info will appear in .RHO file
redata: Write Mulliken Pop.                         = NO
redata: Matel table size (NRTAB)                    =     1024
redata: Mesh Cutoff                                 =   100.0000 Ry
redata: Net charge of the system                    =     0.0000 |e|
redata: Min. number of SCF Iter                     =        0
redata: Max. number of SCF Iter                     =     1000
redata: SCF convergence failure will abort job
redata: SCF mix quantity                            = Hamiltonian
redata: Mix DM or H after convergence               =   F
redata: Recompute H after scf cycle                 =   F
redata: Mix DM in first SCF step                    =   T
redata: Write Pulay info on disk                    =   F
redata: New DM Occupancy tolerance                  = 0.000000000001
redata: No kicks to SCF
redata: DM Mixing Weight for Kicks                  =     0.5000
redata: Require Harris convergence for SCF          =   F
redata: Harris energy tolerance for SCF             =     0.000100 eV
redata: Require DM convergence for SCF              =   T
redata: DM tolerance for SCF                        =     0.000100
redata: Require EDM convergence for SCF             =   F
redata: EDM tolerance for SCF                       =     0.001000 eV
redata: Require H convergence for SCF               =   T
redata: Hamiltonian tolerance for SCF               =     0.001000 eV
redata: Require (free) Energy convergence for SCF   =   F
redata: (free) Energy tolerance for SCF             =     0.000100 eV
redata: Using DFT-D3 dispersion                     =   F
redata: Using Saved Data (generic)                  =   F
redata: Use continuation files for DM               =   F
redata: Neglect nonoverlap interactions             =   F
redata: Method of Calculation                       = Diagonalization
redata: Electronic Temperature                      =   299.9863 K
redata: Fix the spin of the system                  =   F
redata: Max. number of TDED Iter                    =        1
redata: Number of TDED substeps                     =        3
redata: Dynamics option                             = Annealing MD run
redata: Initial MD time step                        =        1
redata:   Final MD time step                        =       10
redata: Length of MD time step                      =     1.0000 fs
redata: Initial Temperature of MD run               =   100.0000 K
redata: Annealing Option                            = Temperature
redata: Target Temperature                          =   600.0000 Kelvin
redata: Annealing Relaxation Time                   =    25.0000 fs
mix.SCF: Pulay mixing                            = Pulay
mix.SCF:    Variant                              = stable
mix.SCF:    History steps                        = 2
mix.SCF:    Linear mixing weight                 =     0.250000
mix.SCF:    Mixing weight                        =     0.250000
mix.SCF:    SVD condition                        = 0.1000E-07
redata: Save all siesta data in one NC              =   F
redata: ***********************************************************************

%block SCF.Mixers
  Pulay
%endblock SCF.Mixers

%block SCF.Mixer.Pulay
  # Mixing method
  method pulay
  variant stable

  # Mixing options
  weight 0.2500
  weight.linear 0.2500
  history 2
%endblock SCF.Mixer.Pulay

Size of DM history Fstack: 1
Total number of electrons:    16.000000
Total ionic charge:    16.000000

siesta: k-grid: Number of k-points = 1
siesta: k-point is Gamma-only

diag: Algorithm                                     = D&C
diag: Used triangular part                          = Lower
diag: Absolute tolerance                            =  0.100E-15
diag: Orthogonalization factor                      =  0.100E-05
diag: Memory factor                                 =  1.0000


ts: **************************************************************
ts: Save H and S matrices                           =    F
ts: Save DM and EDM matrices                        =    F
ts: Only save the overlap matrix S                  =    F
ts: **************************************************************

************************ Begin: TS CHECKS AND WARNINGS ************************
************************ End: TS CHECKS AND WARNINGS **************************


                     ====================================
                        Begin MD step =      1
                     ====================================

outcoor: Atomic coordinates (Ang):                          
    0.02204106   -0.04895489   -0.00764735   1       1  O
    0.73834301    0.70369788    0.02125556   2       2  H
   -0.75168059    0.64562644   -0.03244317   2       3  H
   -0.01659248    0.04822197    3.03678055   1       4  O
    0.70920986   -0.69469711    2.86835138   2       5  H
   -0.78041421   -0.64024240    3.15621729   2       6  H

outcell: Unit cell vectors (Ang):
       10.000004    0.000000    0.000000
        0.000000   10.000004    0.000000
        0.000000    0.000000    8.000003

outcell: Cell vector modules (Ang)   :   10.000004   10.000004    8.000003
outcell: Cell angles (23,13,12) (deg):     90.0000     90.0000     90.0000
outcell: Cell volume (Ang**3)        :    800.0010
Gamma-point calculation with multiply-connected orbital pairs
Folding of H and S implicitly performed
<dSpData1D:S at geom step 1
  <sparsity:sparsity for geom step 1
    nrows_g=12 nrows=12 sparsity=1.0000 nnzs=144, refcount: 7>
  <dData1D:(new from dSpData1D) n=144, refcount: 1>
refcount: 1>
new_DM -- step:     1
Initializing Density Matrix...
DM filled with atomic data:
<dSpData2D:DM initialized from atoms
  <sparsity:sparsity for geom step 1
    nrows_g=12 nrows=12 sparsity=1.0000 nnzs=144, refcount: 8>
  <dData2D:DM n=144 m=1, refcount: 1>
refcount: 1>
No. of atoms with KB's overlaping orbs in proc 0. Max # of overlaps:       6      11

InitMesh: MESH = 64 x 64 x 50 = 204800
InitMesh: Mesh cutoff (required, used) =   100.000   107.960 Ry
New grid distribution [1]: sub = 2

stepf: Fermi-Dirac step function

siesta: Program's energy decomposition (eV):
siesta: Ebs     =      -143.568926
siesta: Eions   =      1621.026762
siesta: Ena     =       347.353971
siesta: Ekin    =       745.047383
siesta: Enl     =      -134.407934
siesta: Eso     =         0.000000
siesta: Edftu   =         0.000000
siesta: DEna    =       -37.276035
siesta: DUscf   =         7.792078
siesta: DUext   =         0.000000
siesta: Ex      =      -205.039643
siesta: Ec      =       -25.317591
siesta: Exc     =      -230.357235
siesta: EbV     =         0.000000
siesta: eta*DQ  =         0.000000
siesta: Emadel  =         0.000000
siesta: Emeta   =         0.000000
siesta: Emolmec =         0.000000
siesta: Ekinion =         0.000000
siesta: Eharris =      -916.738676
siesta: Etot    =      -922.874534
siesta: FreeEng =      -922.874534

        iscf     Eharris(eV)        E_KS(eV)     FreeEng(eV)     dDmax    Ef(eV) dHmax(eV)
   scf:    1     -916.738676     -922.874534     -922.874534  0.680994 -4.349931  7.371243
timer: Routine,Calls,Time,% = IterSCF        1       0.016  12.00
   scf:    2     -926.388544     -924.837578     -924.837578  0.151788 -3.521389  3.539632
   scf:    3     -925.585262     -925.379784     -925.379784  0.130241 -2.849206  0.715911
   scf:    4     -925.401162     -925.390935     -925.390935  0.009570 -2.920388  0.524037
   scf:    5     -925.407129     -925.399679     -925.399679  0.019843 -3.019260  0.169744
   scf:    6     -925.401148     -925.400454     -925.400454  0.006319 -3.029978  0.090244
   scf:    7     -925.400604     -925.400549     -925.400549  0.003117 -3.029503  0.028464
   scf:    8     -925.400560     -925.400555     -925.400555  0.000236 -3.026313  0.014325
   scf:    9     -925.400567     -925.400561     -925.400561  0.000307 -3.022289  0.009411
   scf:   10     -925.400567     -925.400564     -925.400564  0.000262 -3.020895  0.005635
   scf:   11     -925.400566     -925.400565     -925.400565  0.000272 -3.019760  0.003196
   scf:   12     -925.400565     -925.400565     -925.400565  0.000055 -3.019677  0.002478
   scf:   13     -925.400565     -925.400565     -925.400565  0.000049 -3.019674  0.001309
   scf:   14     -925.400565     -925.400565     -925.400565  0.000005 -3.019751  0.000756

SCF Convergence by DM+H criterion
max |DM_out - DM_in|         :     0.0000052920
max |H_out - H_in|      (eV) :     0.0007558321
SCF cycle converged after 14 iterations

Using DM_out to compute the final energy and forces
No. of atoms with KB's overlaping orbs in proc 0. Max # of overlaps:       6      11

siesta: E_KS(eV) =             -925.4006

siesta: E_KS - E_eggbox =      -925.4006

siesta: Atomic forces (eV/Ang):
     1    0.082468   -1.777262    0.227780
     2    2.325721    1.034140    0.189937
     3   -2.383662    0.826249    0.027061
     4    0.658111    1.642113    0.113884
     5    1.697144   -0.643241   -0.501623
     6   -2.367047   -1.090018    0.331351
----------------------------------------
   Tot    0.012735   -0.008019    0.388390
----------------------------------------
   Max    2.383662
   Res    1.284226    sqrt( Sum f_i^2 / 3N )
----------------------------------------
   Max    2.383662    constrained

Stress tensor Voigt[x,y,z,yz,xz,xy] (kbar):      -16.51       -6.00       -0.08       -0.53        0.86       -0.79
(Free)E + p*V (eV/cell)     -921.6423
Target enthalpy (eV/cell)     -925.4006

siesta: Stress tensor (static) (eV/Ang**3):
        -0.008184   -0.000580    0.000632
        -0.000580   -0.003199   -0.000364
         0.000632   -0.000364    0.000029

siesta: Pressure (static):          6.06366922  kBar

siesta: Stress tensor (total) (eV/Ang**3):
        -0.010302   -0.000493    0.000536
        -0.000493   -0.003742   -0.000328
         0.000536   -0.000328   -0.000050

siesta: Pressure (total):          7.52674772  kBar
 Anneal: Kinetic Energy=    5.9770994015810867E-002
 Anneal: Velocity scale factor =   0.98948151529991557     

siesta: Temp_ion =    1231.948 K

                     ====================================
                        Begin MD step =      2
                     ====================================

outcoor: Atomic coordinates (Ang):                          
    0.02414687   -0.04891777   -0.00786572   1       1  O
    0.70407588    0.67782225    0.02752701   2       2  H
   -0.71668093    0.61450282   -0.03014317   2       3  H
   -0.01746170    0.04915175    3.04212077   1       4  O
    0.65267973   -0.66924694    2.85512627   2       5  H
   -0.74360521   -0.62394334    3.16535695   2       6  H

outcell: Unit cell vectors (Ang):
       10.000004    0.000000    0.000000
        0.000000   10.000004    0.000000
        0.000000    0.000000    8.000003

outcell: Cell vector modules (Ang)   :   10.000004   10.000004    8.000003
outcell: Cell angles (23,13,12) (deg):     90.0000     90.0000     90.0000
outcell: Cell volume (Ang**3)        :    800.0010
Gamma-point calculation with multiply-connected orbital pairs
Folding of H and S implicitly performed
<dSpData1D:S at geom step 2
  <sparsity:sparsity for geom step 2
    nrows_g=12 nrows=12 sparsity=1.0000 nnzs=144, refcount: 7>
  <dData1D:(new from dSpData1D) n=144, refcount: 1>
refcount: 1>
new_DM -- step:     2
Re-using DM from previous geometries...
Number of DMs in history: 1
 DM extrapolation coefficients: 
1   1.00000
New DM after history re-use:
<dSpData2D:SpM extrapolated using coords
  <sparsity:sparsity for geom step 2
    nrows_g=12 nrows=12 sparsity=1.0000 nnzs=144, refcount: 9>
  <dData2D:(temp array for extrapolation) n=144 m=1, refcount: 1>
refcount: 1>
No. of atoms with KB's overlaping orbs in proc 0. Max # of overlaps:       6      11

InitMesh: MESH = 64 x 64 x 50 = 204800
InitMesh: Mesh cutoff (required, used) =   100.000   107.960 Ry
New grid distribution [1]: sub = 2

        iscf     Eharris(eV)        E_KS(eV)     FreeEng(eV)     dDmax    Ef(eV) dHmax(eV)
   scf:    1     -923.793364     -924.744716     -924.744716  0.079703 -2.680868  0.754082
   scf:    2     -924.600761     -924.724292     -924.724292  0.070291 -2.289103  1.037521
   scf:    3     -924.805651     -924.781638     -924.781638  0.040150 -2.523206  0.066797
   scf:    4     -924.781830     -924.781736     -924.781736  0.001296 -2.529906  0.047725
   scf:    5     -924.781903     -924.781829     -924.781829  0.003272 -2.548585  0.005827
   scf:    6     -924.781831     -924.781830     -924.781830  0.000109 -2.549635  0.002856
   scf:    7     -924.781831     -924.781831     -924.781831  0.000113 -2.550526  0.000664
   scf:    8     -924.781831     -924.781831     -924.781831  0.000021 -2.550544  0.000470

SCF Convergence by DM+H criterion
max |DM_out - DM_in|         :     0.0000212813
max |H_out - H_in|      (eV) :     0.0004701865
SCF cycle converged after 8 iterations

Using DM_out to compute the final energy and forces
No. of atoms with KB's overlaping orbs in proc 0. Max # of overlaps:       6      11

siesta: E_KS(eV) =             -924.7818

siesta: Atomic forces (eV/Ang):
     1    0.277888   -4.294381    0.209179
     2    4.039464    2.362020    0.295018
     3   -4.293188    2.039969   -0.035851
     4    0.298901    4.046918    0.159314
     5    3.737287   -2.137632   -1.107614
     6   -4.043611   -2.019171    0.697519
----------------------------------------
   Tot    0.016741   -0.002277    0.217565
----------------------------------------
   Max    4.294381
   Res    2.585328    sqrt( Sum f_i^2 / 3N )
----------------------------------------
   Max    4.294381    constrained

Stress tensor Voigt[x,y,z,yz,xz,xy] (kbar):      -25.07      -12.63       -0.29       -0.92        1.88       -0.03
(Free)E + p*V (eV/cell)     -918.4583
Target enthalpy (eV/cell)     -924.7818

siesta: Stress tensor (static) (eV/Ang**3):
        -0.014210   -0.000156    0.001281
        -0.000156   -0.007421   -0.000623
         0.001281   -0.000623   -0.000092

siesta: Pressure (static):         11.60122836  kBar

siesta: Stress tensor (total) (eV/Ang**3):
        -0.015650   -0.000019    0.001171
        -0.000019   -0.007883   -0.000576
         0.001172   -0.000576   -0.000179

siesta: Pressure (total):         12.66428192  kBar
 Anneal: Kinetic Energy=    1.6824053952094700E-002
 Anneal: Velocity scale factor =    1.0137865779163027     

siesta: Temp_ion =     364.007 K

                     ====================================
                        Begin MD step =      3
                     ====================================

outcoor: Atomic coordinates (Ang):                          
    0.02648063   -0.05150515   -0.00796221   1       1  O
    0.70806254    0.67415400    0.03683420   2       2  H
   -0.72237698    0.60231674   -0.02812765   2       3  H
   -0.01817215    0.05258139    3.04770564   1       4  O
    0.63085723   -0.66383845    2.83078830   2       5  H
   -0.74502014   -0.62678874    3.18151729   2       6  H

outcell: Unit cell vectors (Ang):
       10.000004    0.000000    0.000000
        0.000000   10.000004    0.000000
        0.000000    0.000000    8.000003

outcell: Cell vector modules (Ang)   :   10.000004   10.000004    8.000003
outcell: Cell angles (23,13,12) (deg):     90.0000     90.0000     90.0000
outcell: Cell volume (Ang**3)        :    800.0010
Gamma-point calculation with multiply-connected orbital pairs
Folding of H and S implicitly performed
<dSpData1D:S at geom step 3
  <sparsity:sparsity for geom step 3
    nrows_g=12 nrows=12 sparsity=1.0000 nnzs=144, refcount: 7>
  <dData1D:(new from dSpData1D) n=144, refcount: 1>
refcount: 1>
new_DM -- step:     3
Re-using DM from previous geometries...
Number of DMs in history: 1
 DM extrapolation coefficients: 
1   1.00000
New DM after history re-use:
<dSpData2D:SpM extrapolated using coords
  <sparsity:sparsity for geom step 3
    nrows_g=12 nrows=12 sparsity=1.0000 nnzs=144, refcount: 9>
  <dData2D:(temp array for extrapolation) n=144 m=1, refcount: 1>
refcount: 1>
No. of atoms with KB's overlaping orbs in proc 0. Max # of overlaps:       6      11

InitMesh: MESH = 64 x 64 x 50 = 204800
InitMesh: Mesh cutoff (required, used) =   100.000   107.960 Ry
New grid distribution [1]: sub = 2

        iscf     Eharris(eV)        E_KS(eV)     FreeEng(eV)     dDmax    Ef(eV) dHmax(eV)
   scf:    1     -924.754135     -924.772387     -924.772387  0.032220 -2.528771  0.083862
   scf:    2     -924.772827     -924.772734     -924.772734  0.006743 -2.526605  0.026611
   scf:    3     -924.772878     -924.772820     -924.772820  0.002046 -2.529825  0.011836
   scf:    4     -924.772825     -924.772823     -924.772823  0.000214 -2.530951  0.007088
   scf:    5     -924.772826     -924.772825     -924.772825  0.000382 -2.532291  0.003421
   scf:    6     -924.772825     -924.772825     -924.772825  0.000133 -2.532434  0.001886
   scf:    7     -924.772825     -924.772825     -924.772825  0.000116 -2.532479  0.000288
   scf:    8     -924.772825     -924.772825     -924.772825  0.000010 -2.532447  0.000179

SCF Convergence by DM+H criterion
max |DM_out - DM_in|         :     0.0000103905
max |H_out - H_in|      (eV) :     0.0001786703
SCF cycle converged after 8 iterations

Using DM_out to compute the final energy and forces
No. of atoms with KB's overlaping orbs in proc 0. Max # of overlaps:       6      11

siesta: E_KS(eV) =             -924.7728

siesta: Atomic forces (eV/Ang):
     1    0.357921   -4.302616    0.188744
     2    3.904602    2.359683    0.324927
     3   -4.233379    2.048954   -0.034477
     4   -0.308908    4.167349    0.221430
     5    4.142397   -2.517999   -1.414228
     6   -3.840929   -1.750229    0.763051
----------------------------------------
   Tot    0.021705    0.005141    0.049447
----------------------------------------
   Max    4.302616
   Res    2.615404    sqrt( Sum f_i^2 / 3N )
----------------------------------------
   Max    4.302616    constrained

Stress tensor Voigt[x,y,z,yz,xz,xy] (kbar):      -23.16      -12.25       -0.51       -1.34        2.29        0.72
(Free)E + p*V (eV/cell)     -918.7950
Target enthalpy (eV/cell)     -924.7728

siesta: Stress tensor (static) (eV/Ang**3):
        -0.014142    0.000366    0.001535
         0.000366   -0.007504   -0.000858
         0.001534   -0.000858   -0.000182

siesta: Pressure (static):         11.65780080  kBar

siesta: Stress tensor (total) (eV/Ang**3):
        -0.014453    0.000451    0.001430
         0.000451   -0.007644   -0.000836
         0.001430   -0.000835   -0.000319

siesta: Pressure (total):         11.97190448  kBar
 Anneal: Kinetic Energy=    1.7273568796056737E-002
 Anneal: Velocity scale factor =    1.0129164844441634     

siesta: Temp_ion =     373.092 K

                     ====================================
                        Begin MD step =      4
                     ====================================

outcoor: Atomic coordinates (Ang):                          
    0.02909333   -0.05678766   -0.00794590   1       1  O
    0.75000961    0.69326952    0.04953219   2       2  H
   -0.76926529    0.60968168   -0.02639433   2       3  H
   -0.01908966    0.05864530    3.05357005   1       4  O
    0.64863398   -0.68270373    2.79210982   2       5  H
   -0.78371172   -0.64667717    3.20549333   2       6  H

outcell: Unit cell vectors (Ang):
       10.000004    0.000000    0.000000
        0.000000   10.000004    0.000000
        0.000000    0.000000    8.000003

outcell: Cell vector modules (Ang)   :   10.000004   10.000004    8.000003
outcell: Cell angles (23,13,12) (deg):     90.0000     90.0000     90.0000
outcell: Cell volume (Ang**3)        :    800.0010
Gamma-point calculation with multiply-connected orbital pairs
Folding of H and S implicitly performed
<dSpData1D:S at geom step 4
  <sparsity:sparsity for geom step 4
    nrows_g=12 nrows=12 sparsity=1.0000 nnzs=144, refcount: 7>
  <dData1D:(new from dSpData1D) n=144, refcount: 1>
refcount: 1>
new_DM -- step:     4
Re-using DM from previous geometries...
Number of DMs in history: 1
 DM extrapolation coefficients: 
1   1.00000
New DM after history re-use:
<dSpData2D:SpM extrapolated using coords
  <sparsity:sparsity for geom step 4
    nrows_g=12 nrows=12 sparsity=1.0000 nnzs=144, refcount: 9>
  <dData2D:(temp array for extrapolation) n=144 m=1, refcount: 1>
refcount: 1>
No. of atoms with KB's overlaping orbs in proc 0. Max # of overlaps:       6      11

InitMesh: MESH = 64 x 64 x 50 = 204800
InitMesh: Mesh cutoff (required, used) =   100.000   107.960 Ry
New grid distribution [1]: sub = 2

        iscf     Eharris(eV)        E_KS(eV)     FreeEng(eV)     dDmax    Ef(eV) dHmax(eV)
   scf:    1     -926.060676     -925.368693     -925.368693  0.076882 -2.854055  0.814765
   scf:    2     -925.153337     -925.330941     -925.330941  0.082263 -3.275540  1.207215
   scf:    3     -925.445281     -925.411922     -925.411922  0.047220 -3.019898  0.061136
   scf:    4     -925.412077     -925.412001     -925.412001  0.001049 -3.012028  0.044779
   scf:    5     -925.412169     -925.412090     -925.412090  0.002488 -2.996851  0.007119
   scf:    6     -925.412098     -925.412094     -925.412094  0.000400 -2.995545  0.002289
   scf:    7     -925.412095     -925.412095     -925.412095  0.000149 -2.995160  0.000595
   scf:    8     -925.412095     -925.412095     -925.412095  0.000015 -2.995190  0.000405

SCF Convergence by DM+H criterion
max |DM_out - DM_in|         :     0.0000146373
max |H_out - H_in|      (eV) :     0.0004047100
SCF cycle converged after 8 iterations

Using DM_out to compute the final energy and forces
No. of atoms with KB's overlaping orbs in proc 0. Max # of overlaps:       6      11

siesta: E_KS(eV) =             -925.4121

siesta: Atomic forces (eV/Ang):
     1    0.219297   -1.841895    0.222996
     2    1.983968    1.042786    0.223748
     3   -2.162336    0.869754    0.029879
     4   -0.521757    1.730676   -0.005078
     5    2.474675   -1.271214   -1.023453
     6   -1.966170   -0.516559    0.444871
----------------------------------------
   Tot    0.027677    0.013548   -0.107038
----------------------------------------
   Max    2.474675
   Res    1.299200    sqrt( Sum f_i^2 / 3N )
----------------------------------------
   Max    2.474675    constrained

Stress tensor Voigt[x,y,z,yz,xz,xy] (kbar):      -13.01       -5.41       -0.54       -1.32        1.82        0.75
(Free)E + p*V (eV/cell)     -922.2562
Target enthalpy (eV/cell)     -925.4121

siesta: Stress tensor (static) (eV/Ang**3):
        -0.007895    0.000502    0.001109
         0.000503   -0.003266   -0.000762
         0.001109   -0.000761   -0.000071

siesta: Pressure (static):          5.99841197  kBar

siesta: Stress tensor (total) (eV/Ang**3):
        -0.008121    0.000468    0.001136
         0.000468   -0.003376   -0.000827
         0.001136   -0.000826   -0.000337

siesta: Pressure (total):          6.32035472  kBar
 Anneal: Kinetic Energy=    6.0010802042847790E-002
 Anneal: Velocity scale factor =   0.98944299946639902     

siesta: Temp_ion =    1236.794 K

                     ====================================
                        Begin MD step =      5
                     ====================================

outcoor: Atomic coordinates (Ang):                          
    0.03178171   -0.06305771   -0.00779688   1       1  O
    0.80986099    0.72185756    0.06408117   2       2  H
   -0.83564288    0.62512848   -0.02441463   2       3  H
   -0.02029912    0.06561388    3.05930760   1       4  O
    0.68947281   -0.71321025    2.74455497   2       5  H
   -0.84020778   -0.67103794    3.23317647   2       6  H

outcell: Unit cell vectors (Ang):
       10.000004    0.000000    0.000000
        0.000000   10.000004    0.000000
        0.000000    0.000000    8.000003

outcell: Cell vector modules (Ang)   :   10.000004   10.000004    8.000003
outcell: Cell angles (23,13,12) (deg):     90.0000     90.0000     90.0000
outcell: Cell volume (Ang**3)        :    800.0010
Gamma-point calculation with multiply-connected orbital pairs
Folding of H and S implicitly performed
<dSpData1D:S at geom step 5
  <sparsity:sparsity for geom step 5
    nrows_g=12 nrows=12 sparsity=1.0000 nnzs=144, refcount: 7>
  <dData1D:(new from dSpData1D) n=144, refcount: 1>
refcount: 1>
new_DM -- step:     5
Re-using DM from previous geometries...
Number of DMs in history: 1
 DM extrapolation coefficients: 
1   1.00000
New DM after history re-use:
<dSpData2D:SpM extrapolated using coords
  <sparsity:sparsity for geom step 5
    nrows_g=12 nrows=12 sparsity=1.0000 nnzs=144, refcount: 9>
  <dData2D:(temp array for extrapolation) n=144 m=1, refcount: 1>
refcount: 1>
No. of atoms with KB's overlaping orbs in proc 0. Max # of overlaps:       6      11

InitMesh: MESH = 64 x 64 x 50 = 204800
InitMesh: Mesh cutoff (required, used) =   100.000   107.960 Ry
New grid distribution [1]: sub = 2

        iscf     Eharris(eV)        E_KS(eV)     FreeEng(eV)     dDmax    Ef(eV) dHmax(eV)
   scf:    1     -926.379676     -925.590544     -925.590544  0.112600 -3.423150  1.319249
   scf:    2     -924.734566     -925.408679     -925.408679  0.143875 -4.098483  2.314219
   scf:    3     -925.827331     -925.710860     -925.710860  0.086559 -3.666219  0.098798
   scf:    4     -925.711288     -925.711085     -925.711085  0.001447 -3.651419  0.073327
   scf:    5     -925.711511     -925.711308     -925.711308  0.003018 -3.632649  0.025058
   scf:    6     -925.711374     -925.711344     -925.711344  0.001393 -3.626602  0.004049
   scf:    7     -925.711347     -925.711346     -925.711346  0.000296 -3.625710  0.001082
   scf:    8     -925.711346     -925.711346     -925.711346  0.000041 -3.625710  0.000534

SCF Convergence by DM+H criterion
max |DM_out - DM_in|         :     0.0000409642
max |H_out - H_in|      (eV) :     0.0005339428
SCF cycle converged after 8 iterations

Using DM_out to compute the final energy and forces
No. of atoms with KB's overlaping orbs in proc 0. Max # of overlaps:       6      11

siesta: E_KS(eV) =             -925.7113

siesta: Atomic forces (eV/Ang):
     1    0.032196    0.612048    0.297072
     2   -0.037627   -0.296466    0.073368
     3    0.060257   -0.294373    0.095521
     4   -0.398590   -0.873988   -0.418401
     5    0.409718    0.269159   -0.308490
     6   -0.032785    0.603388    0.023774
----------------------------------------
   Tot    0.033170    0.019768   -0.237156
----------------------------------------
   Max    0.873988
   Res    0.369458    sqrt( Sum f_i^2 / 3N )
----------------------------------------
   Max    0.873988    constrained

Stress tensor Voigt[x,y,z,yz,xz,xy] (kbar):       -2.38        1.68       -0.30       -0.94        0.94        0.46
(Free)E + p*V (eV/cell)     -925.5446
Target enthalpy (eV/cell)     -925.7113

siesta: Stress tensor (static) (eV/Ang**3):
        -0.000302    0.000357    0.000328
         0.000356    0.001439   -0.000401
         0.000328   -0.000400    0.000236

siesta: Pressure (static):         -0.73325766  kBar

siesta: Stress tensor (total) (eV/Ang**3):
        -0.001484    0.000285    0.000589
         0.000285    0.001047   -0.000587
         0.000589   -0.000587   -0.000188

siesta: Pressure (total):          0.33397791  kBar
 Anneal: Kinetic Energy=    7.8974449901470192E-002
 Anneal: Velocity scale factor =   0.98713510160365558     

siesta: Temp_ion =    1620.042 K

                     ====================================
                        Begin MD step =      6
                     ====================================

outcoor: Atomic coordinates (Ang):                          
    0.03442009   -0.06880207   -0.00747483   1       1  O
    0.86781689    0.74690878    0.07894904   2       2  H
   -0.89974323    0.63739635   -0.02158331   2       3  H
   -0.02171476    0.07188286    3.06464845   1       4  O
    0.73313222   -0.74038860    2.69530883   2       5  H
   -0.89555999   -0.68907063    3.26037196   2       6  H

outcell: Unit cell vectors (Ang):
       10.000004    0.000000    0.000000
        0.000000   10.000004    0.000000
        0.000000    0.000000    8.000003

outcell: Cell vector modules (Ang)   :   10.000004   10.000004    8.000003
outcell: Cell angles (23,13,12) (deg):     90.0000     90.0000     90.0000
outcell: Cell volume (Ang**3)        :    800.0010
Gamma-point calculation with multiply-connected orbital pairs
Folding of H and S implicitly performed
<dSpData1D:S at geom step 6
  <sparsity:sparsity for geom step 6
    nrows_g=12 nrows=12 sparsity=1.0000 nnzs=144, refcount: 7>
  <dData1D:(new from dSpData1D) n=144, refcount: 1>
refcount: 1>
new_DM -- step:     6
Re-using DM from previous geometries...
Number of DMs in history: 1
 DM extrapolation coefficients: 
1   1.00000
New DM after history re-use:
<dSpData2D:SpM extrapolated using coords
  <sparsity:sparsity for geom step 6
    nrows_g=12 nrows=12 sparsity=1.0000 nnzs=144, refcount: 9>
  <dData2D:(temp array for extrapolation) n=144 m=1, refcount: 1>
refcount: 1>
Note: For starting DM, Qtot, Tr[D*S] =         16.00000000         15.97376892
No. of atoms with KB's overlaping orbs in proc 0. Max # of overlaps:       6      11

InitMesh: MESH = 64 x 64 x 50 = 204800
InitMesh: Mesh cutoff (required, used) =   100.000   107.960 Ry
New grid distribution [1]: sub = 2

        iscf     Eharris(eV)        E_KS(eV)     FreeEng(eV)     dDmax    Ef(eV) dHmax(eV)
   scf:    1     -925.941516     -925.338131     -925.338131  0.102725 -0.856150  1.371610
   scf:    2     -924.030129     -925.027698     -925.027698  0.166124 -4.670290  2.760561
   scf:    3     -925.630734     -925.471932     -925.471932  0.105200 -4.205208  0.105663
   scf:    4     -925.472516     -925.472246     -925.472246  0.001376 -4.189340  0.078458
   scf:    5     -925.472754     -925.472508     -925.472508  0.002775 -4.173074  0.031404
   scf:    6     -925.472608     -925.472563     -925.472563  0.001726 -4.165250  0.003625
   scf:    7     -925.472565     -925.472564     -925.472564  0.000229 -4.164503  0.001171
   scf:    8     -925.472565     -925.472564     -925.472564  0.000044 -4.164438  0.000665

SCF Convergence by DM+H criterion
max |DM_out - DM_in|         :     0.0000439136
max |H_out - H_in|      (eV) :     0.0006650257
SCF cycle converged after 8 iterations

Using DM_out to compute the final energy and forces
No. of atoms with KB's overlaping orbs in proc 0. Max # of overlaps:       6      11

siesta: E_KS(eV) =             -925.4726

siesta: Atomic forces (eV/Ang):
     1   -0.090025    2.055632    0.366800
     2   -1.374246   -1.111064   -0.051000
     3    1.534491   -0.966773    0.135631
     4   -0.256567   -2.463979   -0.776602
     5   -1.023973    1.265609    0.292257
     6    1.249540    1.242709   -0.304237
----------------------------------------
   Tot    0.039221    0.022134   -0.337151
----------------------------------------
   Max    2.463979
   Res    1.142017    sqrt( Sum f_i^2 / 3N )
----------------------------------------
   Max    2.463979    constrained

Stress tensor Voigt[x,y,z,yz,xz,xy] (kbar):        6.21        6.53        0.17       -0.42       -0.02        0.27
(Free)E + p*V (eV/cell)     -927.6222
Target enthalpy (eV/cell)     -925.4726

siesta: Stress tensor (static) (eV/Ang**3):
         0.005544    0.000201   -0.000404
         0.000201    0.004528   -0.000025
        -0.000404   -0.000025    0.000606

siesta: Pressure (static):         -5.70304923  kBar

siesta: Stress tensor (total) (eV/Ang**3):
         0.003876    0.000168   -0.000015
         0.000168    0.004077   -0.000261
        -0.000015   -0.000260    0.000109

siesta: Pressure (total):         -4.30510740  kBar
 Anneal: Kinetic Energy=    5.9434478338578296E-002
 Anneal: Velocity scale factor =   0.98953608498331525     

siesta: Temp_ion =    1225.147 K

                     ====================================
                        Begin MD step =      7
                     ====================================

outcoor: Atomic coordinates (Ang):                          
    0.03694954   -0.07319949   -0.00694064   1       1  O
    0.91154331    0.76091196    0.09302270   2       2  H
   -0.94796771    0.64025041   -0.01752657   2       3  H
   -0.02325387    0.07655024    3.06941408   1       4  O
    0.76617906   -0.75501058    2.64986151   2       5  H
   -0.93791840   -0.69495523    3.28411664   2       6  H

outcell: Unit cell vectors (Ang):
       10.000004    0.000000    0.000000
        0.000000   10.000004    0.000000
        0.000000    0.000000    8.000003

outcell: Cell vector modules (Ang)   :   10.000004   10.000004    8.000003
outcell: Cell angles (23,13,12) (deg):     90.0000     90.0000     90.0000
outcell: Cell volume (Ang**3)        :    800.0010
Gamma-point calculation with multiply-connected orbital pairs
Folding of H and S implicitly performed
<dSpData1D:S at geom step 7
  <sparsity:sparsity for geom step 7
    nrows_g=12 nrows=12 sparsity=1.0000 nnzs=144, refcount: 7>
  <dData1D:(new from dSpData1D) n=144, refcount: 1>
refcount: 1>
new_DM -- step:     7
Re-using DM from previous geometries...
Number of DMs in history: 1
 DM extrapolation coefficients: 
1   1.00000
New DM after history re-use:
<dSpData2D:SpM extrapolated using coords
  <sparsity:sparsity for geom step 7
    nrows_g=12 nrows=12 sparsity=1.0000 nnzs=144, refcount: 9>
  <dData2D:(temp array for extrapolation) n=144 m=1, refcount: 1>
refcount: 1>
Note: For starting DM, Qtot, Tr[D*S] =         16.00000000         15.97408981
No. of atoms with KB's overlaping orbs in proc 0. Max # of overlaps:       6      11

InitMesh: MESH = 64 x 64 x 50 = 204800
InitMesh: Mesh cutoff (required, used) =   100.000   107.960 Ry
New grid distribution [1]: sub = 2

        iscf     Eharris(eV)        E_KS(eV)     FreeEng(eV)     dDmax    Ef(eV) dHmax(eV)
   scf:    1     -925.420740     -925.001251     -925.001251  0.067448 -1.378780  0.996576
   scf:    2     -924.105572     -924.775857     -924.775857  0.130091 -4.890310  2.226112
   scf:    3     -925.173271     -925.074160     -925.074160  0.086138 -1.526202  0.083390
   scf:    4     -925.074569     -925.074377     -925.074377  0.001110 -1.516902  0.060707
   scf:    5     -925.074728     -925.074563     -925.074563  0.002265 -1.506141  0.019747
   scf:    6     -925.074603     -925.074585     -925.074585  0.001042 -1.502294  0.002455
   scf:    7     -925.074586     -925.074586     -925.074586  0.000113 -1.501955  0.001109
   scf:    8     -925.074586     -925.074586     -925.074586  0.000035 -1.501892  0.000590

SCF Convergence by DM+H criterion
max |DM_out - DM_in|         :     0.0000348175
max |H_out - H_in|      (eV) :     0.0005897594
SCF cycle converged after 8 iterations

Using DM_out to compute the final energy and forces
No. of atoms with KB's overlaping orbs in proc 0. Max # of overlaps:       6      11

siesta: E_KS(eV) =             -925.0746

siesta: Atomic forces (eV/Ang):
     1   -0.148008    2.671815    0.413118
     2   -2.086352   -1.480713   -0.132631
     3    2.317891   -1.244293    0.155298
     4   -0.164913   -3.156192   -1.008952
     5   -1.812261    1.733490    0.679536
     6    1.936492    1.498102   -0.512943
----------------------------------------
   Tot    0.042849    0.022210   -0.406575
----------------------------------------
   Max    3.156192
   Res    1.578578    sqrt( Sum f_i^2 / 3N )
----------------------------------------
   Max    3.156192    constrained

Stress tensor Voigt[x,y,z,yz,xz,xy] (kbar):       12.58        9.17        0.78        0.11       -0.95        0.16
(Free)E + p*V (eV/cell)     -928.8256
Target enthalpy (eV/cell)     -925.0746

siesta: Stress tensor (static) (eV/Ang**3):
         0.009125    0.000099   -0.000933
         0.000099    0.005971    0.000249
        -0.000933    0.000249    0.000950

siesta: Pressure (static):         -8.56933826  kBar

siesta: Stress tensor (total) (eV/Ang**3):
         0.007853    0.000098   -0.000591
         0.000097    0.005723    0.000067
        -0.000591    0.000067    0.000490

siesta: Pressure (total):         -7.51215317  kBar
 Anneal: Kinetic Energy=    2.9283765501671926E-002
 Anneal: Velocity scale factor =   0.99946545766744754     

siesta: Temp_ion =     615.813 K

                     ====================================
                        Begin MD step =      8
                     ====================================

outcoor: Atomic coordinates (Ang):                          
    0.03938706   -0.07598178   -0.00615801   1       1  O
    0.93526318    0.76073443    0.10581246   2       2  H
   -0.97396574    0.63119747   -0.01198846   2       3  H
   -0.02489074    0.07931024    3.07356647   1       4  O
    0.78185297   -0.75303291    2.61096379   2       5  H
   -0.96170542   -0.68650145    3.30292869   2       6  H

outcell: Unit cell vectors (Ang):
       10.000004    0.000000    0.000000
        0.000000   10.000004    0.000000
        0.000000    0.000000    8.000003

outcell: Cell vector modules (Ang)   :   10.000004   10.000004    8.000003
outcell: Cell angles (23,13,12) (deg):     90.0000     90.0000     90.0000
outcell: Cell volume (Ang**3)        :    800.0010
Gamma-point calculation with multiply-connected orbital pairs
Folding of H and S implicitly performed
<dSpData1D:S at geom step 8
  <sparsity:sparsity for geom step 8
    nrows_g=12 nrows=12 sparsity=1.0000 nnzs=144, refcount: 7>
  <dData1D:(new from dSpData1D) n=144, refcount: 1>
refcount: 1>
new_DM -- step:     8
Re-using DM from previous geometries...
Number of DMs in history: 1
 DM extrapolation coefficients: 
1   1.00000
New DM after history re-use:
<dSpData2D:SpM extrapolated using coords
  <sparsity:sparsity for geom step 8
    nrows_g=12 nrows=12 sparsity=1.0000 nnzs=144, refcount: 9>
  <dData2D:(temp array for extrapolation) n=144 m=1, refcount: 1>
refcount: 1>
No. of atoms with KB's overlaping orbs in proc 0. Max # of overlaps:       6      11

InitMesh: MESH = 64 x 64 x 50 = 204800
InitMesh: Mesh cutoff (required, used) =   100.000   107.960 Ry
New grid distribution [1]: sub = 2

        iscf     Eharris(eV)        E_KS(eV)     FreeEng(eV)     dDmax    Ef(eV) dHmax(eV)
   scf:    1     -925.042184     -924.829764     -924.829764  0.028557 -1.627952  0.380855
   scf:    2     -924.684752     -924.792583     -924.792583  0.052182 -1.812179  0.880309
   scf:    3     -924.855763     -924.840703     -924.840703  0.034885 -1.682987  0.040219
   scf:    4     -924.840837     -924.840771     -924.840771  0.000972 -1.680258  0.028406
   scf:    5     -924.840888     -924.840839     -924.840839  0.002053 -1.675357  0.003426
   scf:    6     -924.840840     -924.840839     -924.840839  0.000199 -1.675040  0.001828
   scf:    7     -924.840840     -924.840840     -924.840840  0.000065 -1.674941  0.000779

SCF Convergence by DM+H criterion
max |DM_out - DM_in|         :     0.0000647872
max |H_out - H_in|      (eV) :     0.0007789314
SCF cycle converged after 7 iterations

Using DM_out to compute the final energy and forces
No. of atoms with KB's overlaping orbs in proc 0. Max # of overlaps:       6      11

siesta: E_KS(eV) =             -924.8408

siesta: Atomic forces (eV/Ang):
     1   -0.165324    2.762733    0.432517
     2   -2.380913   -1.558966   -0.177597
     3    2.642932   -1.276113    0.163626
     4   -0.085853   -3.267485   -1.137398
     5   -2.179481    1.862950    0.895262
     6    2.215396    1.498177   -0.629529
----------------------------------------
   Tot    0.046757    0.021296   -0.453119
----------------------------------------
   Max    3.267485
   Res    1.718634    sqrt( Sum f_i^2 / 3N )
----------------------------------------
   Max    3.267485    constrained

Stress tensor Voigt[x,y,z,yz,xz,xy] (kbar):       16.38        9.83        1.41        0.53       -1.68        0.04
(Free)E + p*V (eV/cell)     -929.4377
Target enthalpy (eV/cell)     -924.8408

siesta: Stress tensor (static) (eV/Ang**3):
         0.010792    0.000017   -0.001252
         0.000016    0.006202    0.000411
        -0.001252    0.000411    0.001239

siesta: Pressure (static):         -9.73768106  kBar

siesta: Stress tensor (total) (eV/Ang**3):
         0.010226    0.000028   -0.001051
         0.000027    0.006134    0.000333
        -0.001050    0.000333    0.000879

siesta: Pressure (total):         -9.20629299  kBar
 Anneal: Kinetic Energy=    1.2672654537661665E-002
 Anneal: Velocity scale factor =    1.0246763346916470     

siesta: Temp_ion =     280.109 K

                     ====================================
                        Begin MD step =      9
                     ====================================

outcoor: Atomic coordinates (Ang):                          
    0.04184272   -0.07719414   -0.00506948   1       1  O
    0.93680132    0.74525755    0.11749153   2       2  H
   -0.97532454    0.60918143   -0.00457216   2       3  H
   -0.02666145    0.08018730    3.07722094   1       4  O
    0.77692373   -0.73268552    2.57892724   2       5  H
   -0.96493744   -0.66293609    3.31649464   2       6  H

outcell: Unit cell vectors (Ang):
       10.000004    0.000000    0.000000
        0.000000   10.000004    0.000000
        0.000000    0.000000    8.000003

outcell: Cell vector modules (Ang)   :   10.000004   10.000004    8.000003
outcell: Cell angles (23,13,12) (deg):     90.0000     90.0000     90.0000
outcell: Cell volume (Ang**3)        :    800.0010
Gamma-point calculation with multiply-connected orbital pairs
Folding of H and S implicitly performed
<dSpData1D:S at geom step 9
  <sparsity:sparsity for geom step 9
    nrows_g=12 nrows=12 sparsity=1.0000 nnzs=144, refcount: 7>
  <dData1D:(new from dSpData1D) n=144, refcount: 1>
refcount: 1>
new_DM -- step:     9
Re-using DM from previous geometries...
Number of DMs in history: 1
 DM extrapolation coefficients: 
1   1.00000
New DM after history re-use:
<dSpData2D:SpM extrapolated using coords
  <sparsity:sparsity for geom step 9
    nrows_g=12 nrows=12 sparsity=1.0000 nnzs=144, refcount: 9>
  <dData2D:(temp array for extrapolation) n=144 m=1, refcount: 1>
refcount: 1>
No. of atoms with KB's overlaping orbs in proc 0. Max # of overlaps:       6      11

InitMesh: MESH = 64 x 64 x 50 = 204800
InitMesh: Mesh cutoff (required, used) =   100.000   107.960 Ry
New grid distribution [1]: sub = 2

        iscf     Eharris(eV)        E_KS(eV)     FreeEng(eV)     dDmax    Ef(eV) dHmax(eV)
   scf:    1     -924.759219     -924.898669     -924.898669  0.041066 -1.589546  0.363574
   scf:    2     -924.794247     -924.872052     -924.872052  0.048238 -1.429478  0.763283
   scf:    3     -924.917380     -924.906732     -924.906732  0.032569 -1.543310  0.024441
   scf:    4     -924.906844     -924.906790     -924.906790  0.001060 -1.545576  0.016900
   scf:    5     -924.906874     -924.906837     -924.906837  0.002253 -1.551086  0.003032
   scf:    6     -924.906838     -924.906838     -924.906838  0.000090 -1.551608  0.001387
   scf:    7     -924.906838     -924.906838     -924.906838  0.000086 -1.551989  0.000606

SCF Convergence by DM+H criterion
max |DM_out - DM_in|         :     0.0000860704
max |H_out - H_in|      (eV) :     0.0006058749
SCF cycle converged after 7 iterations

Using DM_out to compute the final energy and forces
No. of atoms with KB's overlaping orbs in proc 0. Max # of overlaps:       6      11

siesta: E_KS(eV) =             -924.9068

siesta: Atomic forces (eV/Ang):
     1   -0.153857    2.454174    0.420394
     2   -2.361188   -1.409963   -0.188597
     3    2.624463   -1.124701    0.166423
     4    0.032990   -2.948727   -1.190419
     5   -2.267254    1.759649    0.976494
     6    2.176284    1.289867   -0.670776
----------------------------------------
   Tot    0.051438    0.020298   -0.486481
----------------------------------------
   Max    2.948727
   Res    1.635645    sqrt( Sum f_i^2 / 3N )
----------------------------------------
   Max    2.948727    constrained

Stress tensor Voigt[x,y,z,yz,xz,xy] (kbar):       17.15        8.61        1.93        0.80       -2.11       -0.12
(Free)E + p*V (eV/cell)     -929.5143
Target enthalpy (eV/cell)     -924.9068

siesta: Stress tensor (static) (eV/Ang**3):
         0.010792   -0.000094   -0.001370
        -0.000094    0.005479    0.000465
        -0.001370    0.000466    0.001459

siesta: Pressure (static):         -9.46914350  kBar

siesta: Stress tensor (total) (eV/Ang**3):
         0.010701   -0.000072   -0.001316
        -0.000072    0.005374    0.000498
        -0.001316    0.000499    0.001202

siesta: Pressure (total):         -9.22743590  kBar
 Anneal: Kinetic Energy=    1.8652528162236240E-002
 Anneal: Velocity scale factor =    1.0105050800981130     

siesta: Temp_ion =     400.960 K

                     ====================================
                        Begin MD step =     10
                     ====================================

outcoor: Atomic coordinates (Ang):                          
    0.04425622   -0.07693639   -0.00370189   1       1  O
    0.91553316    0.71581762    0.12759177   2       2  H
   -0.95132675    0.57582414    0.00460968   2       3  H
   -0.02844926    0.07928581    3.08022674   1       4  O
    0.74996088   -0.69489042    2.55566274   2       5  H
   -0.94718723   -0.62639937    3.32385752   2       6  H

outcell: Unit cell vectors (Ang):
       10.000004    0.000000    0.000000
        0.000000   10.000004    0.000000
        0.000000    0.000000    8.000003

outcell: Cell vector modules (Ang)   :   10.000004   10.000004    8.000003
outcell: Cell angles (23,13,12) (deg):     90.0000     90.0000     90.0000
outcell: Cell volume (Ang**3)        :    800.0010
Gamma-point calculation with multiply-connected orbital pairs
Folding of H and S implicitly performed
<dSpData1D:S at geom step 10
  <sparsity:sparsity for geom step 10
    nrows_g=12 nrows=12 sparsity=1.0000 nnzs=144, refcount: 7>
  <dData1D:(new from dSpData1D) n=144, refcount: 1>
refcount: 1>
new_DM -- step:    10
Re-using DM from previous geometries...
Number of DMs in history: 1
 DM extrapolation coefficients: 
1   1.00000
New DM after history re-use:
<dSpData2D:SpM extrapolated using coords
  <sparsity:sparsity for geom step 10
    nrows_g=12 nrows=12 sparsity=1.0000 nnzs=144, refcount: 9>
  <dData2D:(temp array for extrapolation) n=144 m=1, refcount: 1>
refcount: 1>
Note: For starting DM, Qtot, Tr[D*S] =         16.00000000         16.03142311
No. of atoms with KB's overlaping orbs in proc 0. Max # of overlaps:       6      11

InitMesh: MESH = 64 x 64 x 50 = 204800
InitMesh: Mesh cutoff (required, used) =   100.000   107.960 Ry
New grid distribution [1]: sub = 2

        iscf     Eharris(eV)        E_KS(eV)     FreeEng(eV)     dDmax    Ef(eV) dHmax(eV)
   scf:    1     -924.517947     -925.180942     -925.180942  0.091971 -4.336574  0.996958
   scf:    2     -924.444046     -924.998252     -924.998252  0.126382 -2.292602  2.047402
   scf:    3     -925.322991     -925.244897     -925.244897  0.085119 -4.179513  0.084540
   scf:    4     -925.245377     -925.245147     -925.245147  0.001828 -4.184961  0.058373
   scf:    5     -925.245498     -925.245336     -925.245336  0.003176 -4.199774  0.013637
   scf:    6     -925.245351     -925.245345     -925.245345  0.000678 -4.205067  0.004014
   scf:    7     -925.245346     -925.245345     -925.245345  0.000113 -4.206040  0.001343
   scf:    8     -925.245346     -925.245345     -925.245345  0.000049 -4.206173  0.000993

SCF Convergence by DM+H criterion
max |DM_out - DM_in|         :     0.0000494825
max |H_out - H_in|      (eV) :     0.0009930358
SCF cycle converged after 8 iterations

Using DM_out to compute the final energy and forces
No. of atoms with KB's overlaping orbs in proc 0. Max # of overlaps:       6      11

siesta: E_KS(eV) =             -925.2453

siesta: Atomic forces (eV/Ang):
     1   -0.107350    1.714313    0.361452
     2   -1.983974   -1.009542   -0.151219
     3    2.211245   -0.780063    0.167188
     4    0.242220   -2.195058   -1.168508
     5   -2.080056    1.434763    0.893858
     6    1.774977    0.854798   -0.614347
----------------------------------------
   Tot    0.057063    0.019212   -0.511576
----------------------------------------
   Max    2.211245
   Res    1.318047    sqrt( Sum f_i^2 / 3N )
----------------------------------------
   Max    2.211245    constrained

Stress tensor Voigt[x,y,z,yz,xz,xy] (kbar):       14.21        5.57        2.24        0.83       -2.07       -0.36
(Free)E + p*V (eV/cell)     -928.9101
Target enthalpy (eV/cell)     -925.2453

siesta: Stress tensor (static) (eV/Ang**3):
         0.008957   -0.000271   -0.001235
        -0.000272    0.003873    0.000387
        -0.001235    0.000388    0.001561

siesta: Pressure (static):         -7.68549642  kBar

siesta: Stress tensor (total) (eV/Ang**3):
         0.008869   -0.000225   -0.001295
        -0.000225    0.003478    0.000514
        -0.001295    0.000515    0.001396

siesta: Pressure (total):         -7.33950605  kBar
 Anneal: Kinetic Energy=    4.3339443123952819E-002
 Anneal: Velocity scale factor =   0.99312898817895001     

siesta: Temp_ion =     899.873 K

outcell: Unit cell vectors (Ang):
       10.000004    0.000000    0.000000
        0.000000   10.000004    0.000000
        0.000000    0.000000    8.000003

outcell: Cell vector modules (Ang)   :   10.000004   10.000004    8.000003
outcell: Cell angles (23,13,12) (deg):     90.0000     90.0000     90.0000
outcell: Cell volume (Ang**3)        :    800.0010

siesta: Program's energy decomposition (eV):
siesta: Ebs     =      -182.748122
siesta: Eions   =      1621.026762
siesta: Ena     =       348.187933
siesta: Ekin    =       678.822800
siesta: Enl     =      -111.119370
siesta: Eso     =         0.000000
siesta: Edftu   =         0.000000
siesta: DEna    =        -5.516106
siesta: DUscf   =         3.073300
siesta: DUext   =         0.000000
siesta: Ex      =      -192.980471
siesta: Ec      =       -24.686669
siesta: Exc     =      -217.667140
siesta: EbV     =         0.000000
siesta: eta*DQ  =         0.000000
siesta: Emadel  =         0.000000
siesta: Emeta   =         0.000000
siesta: Emolmec =         0.000000
siesta: Ekinion =         0.581588
siesta: Eharris =      -924.663758
siesta: Etot    =      -924.663758
siesta: FreeEng =      -924.663758

siesta: Final energy (eV):
siesta:  Band Struct. =    -182.748122
siesta:       Kinetic =     678.822800
siesta:       Hartree =     907.737019
siesta:         Edftu =       0.000000
siesta:       Eso     =       0.000000
siesta:    Ext. field =       0.000000
siesta:         Exch. =    -192.980471
siesta:         Corr. =     -24.686669
siesta:     Bulk bias =       0.000000
siesta:   Exch.-corr. =    -217.667140
siesta:  Ion-electron =   -2391.895758
siesta:       Ion-ion =      97.757734
siesta:       Ekinion =       0.581588
siesta: D3 dispersion =       0.000000
siesta:         Total =    -924.663758
siesta:         Fermi =      -4.206173

siesta: Atomic forces (eV/Ang):
siesta:      1   -0.107350    1.714313    0.361452
siesta:      2   -1.983974   -1.009542   -0.151219
siesta:      3    2.211245   -0.780063    0.167188
siesta:      4    0.242220   -2.195058   -1.168508
siesta:      5   -2.080056    1.434763    0.893858
siesta:      6    1.774977    0.854798   -0.614347
siesta: ----------------------------------------
siesta:    Tot    0.057063    0.019212   -0.511576

siesta: Stress tensor (static) (eV/Ang**3):
siesta:     0.008957   -0.000271   -0.001235
siesta:    -0.000272    0.003873    0.000387
siesta:    -0.001235    0.000388    0.001561

siesta: Cell volume =        800.000957 Ang**3

siesta: Pressure (static):
siesta:                Solid            Molecule  Units
siesta:          -0.00005224          0.00000576  Ry/Bohr**3
siesta:          -0.00479691          0.00052923  eV/Ang**3
siesta:          -7.68549642          0.84791830  kBar
(Free)E+ p_basis*V_orbitals  =        -924.595331
(Free)Eharris+ p_basis*V_orbitals  =        -924.595332

siesta: Electric dipole (a.u.)  =   -0.137958    0.022401   -0.000000
siesta: Electric dipole (Debye) =   -0.350655    0.056938   -0.000000

cite: Please see "anneal.bib" for an exhaustive BiBTeX file.
cite: Please clearly indicate Siesta version in published work: 5.0.0-alpha-123-gfb8fd7d02
cite: This calculation has made use of the following articles
cite: which are encouraged to be cited in a published work.
        Primary SIESTA paper
          DOI: www.doi.org/10.1088/0953-8984/14/11/302


timer: Elapsed wall time (sec) =       2.055
timer: CPU execution times (sec):

Routine            Calls   Time/call    Tot.time        %
siesta                 1       2.055       2.055   100.00
Setup                  1       0.061       0.061     2.95
bands                  1       0.000       0.000     0.00
KSV_init               1       0.000       0.000     0.00
IterGeom              10       0.199       1.994    97.03
geom_init             10       0.037       0.373    18.17
state_init            10       0.001       0.009     0.43
hsparse               10       0.000       0.000     0.02
overlap               10       0.001       0.006     0.28
Setup_H0              10       0.021       0.208    10.11
naefs                 20       0.000       0.001     0.03
MolMec                20       0.000       0.000     0.00
kinefsm               20       0.000       0.002     0.12
nlefsm                20       0.001       0.015     0.73
DHSCF_Init            10       0.019       0.191     9.29
DHSCF1                10       0.003       0.026     1.25
INITMESH              10       0.000       0.000     0.00
DHSCF2                10       0.017       0.165     8.04
REMESH                10       0.001       0.006     0.28
REORD                288       0.000       0.038     1.83
PHION                 10       0.005       0.052     2.54
COMM_BSC             446       0.000       0.049     2.38
POISON               114       0.007       0.766    37.27
fft                  228       0.003       0.612    29.78
setup_H               94       0.015       1.447    70.41
DHSCF                104       0.017       1.753    85.32
DHSCF3               104       0.015       1.590    77.38
rhoofd               104       0.001       0.066     3.19
XC                   104       0.005       0.556    27.05
GXC-CellXC           104       0.005       0.498    24.22
gridxc@cellXC        104       0.005       0.497    24.20
vmat                 104       0.001       0.055     2.69
IterSCF               84       0.015       1.299    63.21
compute_dm            84       0.000       0.004     0.20
diagon                84       0.000       0.004     0.19
r-eigvec              84       0.000       0.003     0.15
r-buildHS             84       0.000       0.000     0.00
rdiag                 84       0.000       0.003     0.14
rdiag1                84       0.000       0.000     0.01
rdiag2                84       0.000       0.000     0.01
rdiag3                84       0.000       0.002     0.07
rdiag4                84       0.000       0.000     0.02
r-buildD              84       0.000       0.000     0.02
MIXER                 74       0.000       0.001     0.02
PostSCF               10       0.032       0.318    15.47
DHSCF4                10       0.016       0.163     7.94
dfscf                 10       0.011       0.115     5.58
overfsm               10       0.000       0.000     0.02
state_analysis        10       0.000       0.001     0.05
siesta_move           10       0.000       0.002     0.08
Analysis               1       0.000       0.000     0.01
optical                1       0.000       0.000     0.00
  

>> End of run:  28-SEP-2023  15:37:43
Job completed
