Executable      : /home/fnpedron/Siesta/siesta-dev/_siesta_bin/bin/siesta
Version         : 5.1-MaX-50-g4df4b742f-dirty
Architecture    : x86_64
Compiler version: GNU-11.4.0
Compiler flags  : -g -fallow-argument-mismatch -O3 -march=native
Environment variables: 
  SIESTA_PS_PATH: /home/fnpedron/Siesta/siesta-dev/Tests/Pseudos
Parallelisations: MPI
NetCDF support
NetCDF-4 support
Lua support
DFT-D3 support

Runtime information:
* Directory : /home/fnpedron/Siesta/siesta-dev/Tests/09.MolecularDynamics/work/anneal_pt_half_restart
* Running on 4 nodes in parallel.
>> Start of run:   5-SEP-2024  22:08:07

                           *********************** 
                           *  WELCOME TO SIESTA  * 
                           *********************** 

 NOTE: Siesta V5 introduces some new defaults for basis-set generation
 NOTE: which might lead to slightly different numerical results.
 NOTE: Please see the manual for full details and compatibility measures.


reinit: Reading from standard input
reinit: Dumping input in INPUT_TMP.01477
************************** Dump of input data file ****************************
%include ../../base_wat2.fdf
SystemLabel           anneal_pt
MD.TypeOfRun          anneal
MD.AnnealOption       TemperatureAndPressure
MD.InitialTemperature 100 K
MD.TargetTemperature  600 K
MD.TauRelax           25 fs
MD.TargetPressure     10.0 GPa
************************** End of input data file *****************************

reinit: -----------------------------------------------------------------------
reinit: System Name: Water molecules MD
reinit: -----------------------------------------------------------------------
reinit: System Label: anneal_pt
reinit: -----------------------------------------------------------------------

initatom: Reading input for the pseudopotentials and atomic orbitals ----------
Species number:   1 Atomic number:    8 Label: O
Species number:   2 Atomic number:    1 Label: H

Ground state valence configuration (from tables):   2s02  2p04  3d00  4f00
Ground state valence configuration (from tables):   1s01  2p00  3d00  4f00

---- Processing specs for species: O
Reading pseudopotential information in formatted form from:
  /home/fnpedron/Siesta/siesta-dev/Tests/Pseudos/O.psf

---- Processing specs for species: H
Reading pseudopotential information in formatted form from:
  /home/fnpedron/Siesta/siesta-dev/Tests/Pseudos/H.psf

---- Pseudopotential check for O 

Pseudized shells:
2s( 2.00) rc: 1.14
2p( 4.00) rc: 1.14
3d( 0.00) rc: 1.14
4f( 0.00) rc: 1.14
Valence configuration for ps generation: (assumed as above)

---- Pseudopotential check for H 

Pseudized shells:
1s( 1.00) rc: 1.25
2p( 0.00) rc: 1.25
3d( 0.00) rc: 1.25
4f( 0.00) rc: 1.25
Valence configuration for ps generation: (assumed as above)
For O, standard SIESTA heuristics set lmxkb to 2
 (one more than the basis l, including polarization orbitals).
Use PS.lmax or PS.KBprojectors blocks to override.
For H, standard SIESTA heuristics set lmxkb to 1
 (one more than the basis l, including polarization orbitals).
Use PS.lmax or PS.KBprojectors blocks to override.

<basis_specs>
===============================================================================
O                    Z=   8    Mass=  15.999        Charge= 0.17977+309
Lmxo=1 Lmxkb= 2    BasisType=split      Semic=F
L=0  Nsemic=0  Cnfigmx=2
          i=1  nzeta=1  polorb=0  (2s)
            splnorm:   0.15000    
               vcte:    40.000    
               rinn:  -0.90000    
               qcoe:    0.0000    
               qyuk:    0.0000    
               qwid:   0.10000E-01
                rcs:    0.0000    
            lambdas:    1.0000    
L=1  Nsemic=0  Cnfigmx=2
          i=1  nzeta=1  polorb=0  (2p)
            splnorm:   0.15000    
               vcte:    40.000    
               rinn:  -0.90000    
               qcoe:    0.0000    
               qyuk:    0.0000    
               qwid:   0.10000E-01
                rcs:    0.0000    
            lambdas:    1.0000    
-------------------------------------------------------------------------------
L=0  Nkbl=1  erefs: 0.17977+309
L=1  Nkbl=1  erefs: 0.17977+309
L=2  Nkbl=1  erefs: 0.17977+309
===============================================================================
</basis_specs>

Using PAO.SplitTailNorm
atom: Called for O                     (Z =   8)
Maximum radius (at nrval) set to   50.00000 8518

read_vps: Pseudopotential generation method:
read_vps: ATM3      Troullier-Martins                       
Valence charge in pseudo generation:    6.00000

xc_check: Exchange-correlation functional:
xc_check: Ceperley-Alder
V l=0 = -2*Zval/r beyond r=  1.1366
V l=1 = -2*Zval/r beyond r=  1.1332
V l=2 = -2*Zval/r beyond r=  1.1298
All V_l potentials equal beyond r=  1.1355
This should be close to max(r_c) in ps generation
All pots = -2*Zval/r beyond r=  1.1366
Using small-core scheme (local charge) for Vlocal

VLOCAL_FROM_CHLOCAL: 99.0% of the norm of Vloc inside     33.667 Ry
VLOCAL_FROM_CHLOCAL: 99.9% of the norm of Vloc inside     76.727 Ry
atom: Maximum radius for chlocal:    1.37241
atom: Maximum radius for r*vlocal+2*Zval:    1.25469

KBgen: Kleinman-Bylander projectors: 
GHOST: No ghost state for L =  0
   l= 0   rc=  1.293209   el= -1.742414   Ekb=  9.076872   kbcos=  0.325320
GHOST: No ghost state for L =  1
   l= 1   rc=  1.284119   el= -0.676589   Ekb= -8.194485   kbcos= -0.396010
GHOST: No ghost state for L =  2
   l= 2   rc=  1.433152   el=  0.013307   Ekb= -2.071665   kbcos= -0.003690

KBgen: Total number of Kleinman-Bylander projectors:   9
atom: -------------------------------------------------------------------------

atom: SANKEY-TYPE ORBITALS:

SPLIT: Orbitals with angular momentum L= 0

SPLIT: Basis orbitals for state 2s

SPLIT: PAO cut-off radius determined from an
SPLIT: energy shift=  0.010000 Ry
Split based on tail norm

   izeta = 1
                 lambda =    1.000000
                     rc =    3.560943
                 energy =   -1.731321
                kinetic =    1.587329
    potential(screened) =   -3.318651
       potential(ionic) =  -11.260325

SPLIT: Orbitals with angular momentum L= 1

SPLIT: Basis orbitals for state 2p

SPLIT: PAO cut-off radius determined from an
SPLIT: energy shift=  0.010000 Ry
Split based on tail norm

   izeta = 1
                 lambda =    1.000000
                     rc =    4.290924
                 energy =   -0.665565
                kinetic =    4.934810
    potential(screened) =   -5.600376
       potential(ionic) =  -13.346429
atom: Total number of Sankey-type orbitals:  4

atm_pop: Valence configuration (for local Pseudopot. screening):
 2s( 2.00)                                                            
 2p( 4.00)                                                            
Vna: chval, zval:    6.00000   6.00000

Vna:  Cut-off radius for the neutral-atom potential:   4.290924

atom: _________________________________________________________________________

<basis_specs>
===============================================================================
H                    Z=   1    Mass=  1.0080        Charge= 0.17977+309
Lmxo=0 Lmxkb= 1    BasisType=split      Semic=F
L=0  Nsemic=0  Cnfigmx=1
          i=1  nzeta=1  polorb=0  (1s)
            splnorm:   0.15000    
               vcte:    40.000    
               rinn:  -0.90000    
               qcoe:    0.0000    
               qyuk:    0.0000    
               qwid:   0.10000E-01
                rcs:    0.0000    
            lambdas:    1.0000    
-------------------------------------------------------------------------------
L=0  Nkbl=1  erefs: 0.17977+309
L=1  Nkbl=1  erefs: 0.17977+309
===============================================================================
</basis_specs>

Using PAO.SplitTailNorm
atom: Called for H                     (Z =   1)
Maximum radius (at nrval) set to   50.00000 8518

read_vps: Pseudopotential generation method:
read_vps: ATM3      Troullier-Martins                       
Valence charge in pseudo generation:    1.00000

xc_check: Exchange-correlation functional:
xc_check: Ceperley-Alder
V l=0 = -2*Zval/r beyond r=  1.2384
V l=1 = -2*Zval/r beyond r=  1.2321
All V_l potentials equal beyond r=  1.2371
This should be close to max(r_c) in ps generation
All pots = -2*Zval/r beyond r=  1.2384
Using small-core scheme (local charge) for Vlocal

VLOCAL_FROM_CHLOCAL: 99.0% of the norm of Vloc inside     28.363 Ry
VLOCAL_FROM_CHLOCAL: 99.9% of the norm of Vloc inside     64.639 Ry
atom: Maximum radius for chlocal:    1.44620
atom: Maximum radius for r*vlocal+2*Zval:    1.31026

KBgen: Kleinman-Bylander projectors: 
GHOST: No ghost state for L =  0
   l= 0   rc=  1.364142   el= -0.467325   Ekb= -2.009475   kbcos= -0.336680
GHOST: No ghost state for L =  1
   l= 1   rc=  1.430269   el=  0.007562   Ekb= -0.503817   kbcos= -0.022554

KBgen: Total number of Kleinman-Bylander projectors:   4
atom: -------------------------------------------------------------------------

atom: SANKEY-TYPE ORBITALS:

SPLIT: Orbitals with angular momentum L= 0

SPLIT: Basis orbitals for state 1s

SPLIT: PAO cut-off radius determined from an
SPLIT: energy shift=  0.010000 Ry
Split based on tail norm

   izeta = 1
                 lambda =    1.000000
                     rc =    5.285354
                 energy =   -0.456120
                kinetic =    0.900445
    potential(screened) =   -1.356565
       potential(ionic) =   -1.890080
atom: Total number of Sankey-type orbitals:  1

atm_pop: Valence configuration (for local Pseudopot. screening):
 1s( 1.00)                                                            
Vna: chval, zval:    1.00000   1.00000

Vna:  Cut-off radius for the neutral-atom potential:   5.285354

atom: _________________________________________________________________________

prinput: Basis input 

PAO.BasisType split     

%block ChemicalSpeciesLabel
    1    8 O                       # Species index, atomic number, species label
    2    1 H                       # Species index, atomic number, species label
%endblock ChemicalSpeciesLabel

%block PAO.Basis                 # Define Basis set
# WARNING: This information might be incomplete!
O                     2                    # Species label, number of l-shells
 n=2   0   1                         # n, l, Nzeta 
   3.561   
   1.000   
 n=2   1   1                         # n, l, Nzeta 
   4.291   
   1.000   
H                     1                    # Species label, number of l-shells
 n=1   0   1                         # n, l, Nzeta 
   5.285   
   1.000   
%endblock PAO.Basis

prinput: ----------------------------------------------------------------------

Dumping basis to NetCDF file O.ion.nc
Dumping basis to NetCDF file H.ion.nc
coor:   Atomic-coordinates input format  =     Cartesian coordinates
coor:                                          (in Angstroms)

ioxv: Reading coordinates and velocities from file
! Info in XV file prevails over previous structure input

siesta: Atomic coordinates (Bohr) and species
siesta:      0.04068  -0.09324  -0.01331  1        1
siesta:      1.39878   1.32834   0.04549  2        2
siesta:     -1.42479   1.21969  -0.05416  2        3
siesta:     -0.03078   0.09200   5.46268  1        4
siesta:      1.34551  -1.31378   5.18590  2        5
siesta:     -1.47535  -1.20987   5.72273  2        6

siesta: System type = chain     

initatomlists: Number of atoms, orbitals, and projectors:      6    12    34

siesta: ******************** Simulation parameters ****************************
siesta:
siesta: The following are some of the parameters of the simulation.
siesta: A complete list of the parameters used, including default values,
siesta: can be found in file out.fdf
siesta:
redata: Spin configuration                          = none
redata: Number of spin components                   = 1
redata: Time-Reversal Symmetry                      = T
redata: Spin spiral                                 = F
redata: Long output                                 =   F
redata: Number of Atomic Species                    =        2
redata: Charge density info will appear in .RHO file
redata: Write Mulliken Pop.                         = NO
redata: Matel table size (NRTAB)                    =     1024
redata: Mesh Cutoff                                 =   100.0000 Ry
redata: Net charge of the system                    =     0.0000 |e|
redata: Min. number of SCF Iter                     =        0
redata: Max. number of SCF Iter                     =     1000
redata: SCF convergence failure will abort job
redata: SCF mix quantity                            = Hamiltonian
redata: Mix DM or H after convergence               =   F
redata: Recompute H after scf cycle                 =   F
redata: Mix DM in first SCF step                    =   T
redata: Write Pulay info on disk                    =   F
redata: New DM Occupancy tolerance                  = 0.000000000001
redata: No kicks to SCF
redata: DM Mixing Weight for Kicks                  =     0.5000
redata: Require Harris convergence for SCF          =   F
redata: Harris energy tolerance for SCF             =     0.000100 eV
redata: Require DM convergence for SCF              =   T
redata: DM tolerance for SCF                        =     0.000100
redata: Require EDM convergence for SCF             =   F
redata: EDM tolerance for SCF                       =     0.001000 eV
redata: Require H convergence for SCF               =   T
redata: Hamiltonian tolerance for SCF               =     0.001000 eV
redata: Require (free) Energy convergence for SCF   =   F
redata: (free) Energy tolerance for SCF             =     0.000100 eV
redata: Using DFT-D3 dispersion                     =   F
redata: Using Saved Data (generic)                  =   F
redata: Use continuation files for DM               =   T
redata: Neglect nonoverlap interactions             =   F
redata: Method of Calculation                       = Diagonalization
redata: Electronic Temperature                      =   299.9863 K
redata: Fix the spin of the system                  =   F
redata: Max. number of TDED Iter                    =        1
redata: Number of TDED substeps                     =        3
redata: Dynamics option                             = Annealing MD run
redata: Initial MD time step                        =        1
redata:   Final MD time step                        =       10
redata: Length of MD time step                      =     1.0000 fs
redata: Initial Temperature of MD run               =   100.0000 K
redata: Annealing Option                            = Temperature and Pressure
redata: Target Temperature                          =   600.0000 Kelvin
redata: Target Pressure                             =     0.0624 eV/Ang**3
redata: Annealing Relaxation Time                   =    25.0000 fs
redata: Approx. Bulk Modulus                        =     0.6241 eV/Ang**3
mix.SCF: Pulay mixing                            = Pulay
mix.SCF:    Variant                              = stable
mix.SCF:    History steps                        = 2
mix.SCF:    Linear mixing weight                 =     0.250000
mix.SCF:    Mixing weight                        =     0.250000
mix.SCF:    SVD condition                        = 0.1000E-07
redata: Save all siesta data in one NC              =   F
redata: ***********************************************************************

%block SCF.Mixers
  Pulay
%endblock SCF.Mixers

%block SCF.Mixer.Pulay
  # Mixing method
  method pulay
  variant stable

  # Mixing options
  weight 0.2500
  weight.linear 0.2500
  history 2
%endblock SCF.Mixer.Pulay

Size of DM history Fstack: 1
Total number of electrons:    16.000000
Total ionic charge:    16.000000

* ProcessorY, Blocksize:    2   3


* Orbital distribution balance (max,min):     3     3


siesta: k-grid: Number of k-points = 1
siesta: k-point is Gamma-only

diag: Algorithm                                     = D&C
diag: Parallel over k                               =   F
diag: Use parallel 2D distribution                  =   T
diag: Parallel block-size                           = 3
diag: Parallel distribution                         =     2 x     2
diag: Used triangular part                          = Lower
diag: Absolute tolerance                            =  0.100E-15
diag: Orthogonalization factor                      =  0.100E-05
diag: Memory factor                                 =  1.0000


ts: **************************************************************
ts: Save H and S matrices                           =    F
ts: Save DM and EDM matrices                        =    F
ts: Only save the overlap matrix S                  =    F
ts: **************************************************************

************************ Begin: TS CHECKS AND WARNINGS ************************
************************ End: TS CHECKS AND WARNINGS **************************


                     ====================================
                        Begin MD step =      1
                     ====================================

outcoor: Atomic coordinates (Ang):                          
    0.02152719   -0.04934056   -0.00704160   1       1  O
    0.74020332    0.70292917    0.02407208   2       2  H
   -0.75396657    0.64543120   -0.02866123   2       3  H
   -0.01628910    0.04868541    2.89072592   1       4  O
    0.71201239   -0.69522137    2.74426249   2       5  H
   -0.78072312   -0.64023527    3.02833608   2       6  H

outcell: Unit cell vectors (Ang):
        9.596870    0.000000    0.000000
        0.000000    9.603682    0.000000
        0.000000    0.000000    7.685674

outcell: Cell vector modules (Ang)   :    9.596870    9.603682    7.685674
outcell: Cell angles (23,13,12) (deg):     90.0000     90.0000     90.0000
outcell: Cell volume (Ang**3)        :    708.3524
Gamma-point calculation with multiply-connected orbital pairs
Folding of H and S implicitly performed
<dSpData1D:S at geom step 1
  <sparsity:sparsity for geom step 1
    nrows_g=12 nrows=3 sparsity=.2500 nnzs=36, refcount: 7>
  <dData1D:(new from dSpData1D) n=36, refcount: 1>
refcount: 1>
new_DM -- step:     1
Initializing Density Matrix...

Attempting to read DM from file... Failed...
DM filled with atomic data:
<dSpData2D:DM initialized from atoms
  <sparsity:sparsity for geom step 1
    nrows_g=12 nrows=3 sparsity=.2500 nnzs=36, refcount: 8>
  <dData2D:DM n=36 m=1, refcount: 1>
refcount: 1>
No. of atoms with KB's overlaping orbs in proc 0. Max # of overlaps:       5      11

InitMesh: MESH = 60 x 60 x 48 = 172800
InitMesh: Mesh cutoff (required, used) =   100.000   107.800 Ry
New grid distribution [1]: sub = 2
New grid distribution [2]: sub = 2
New grid distribution [3]: sub = 2
Setting up quadratic distribution...

stepf: Fermi-Dirac step function

siesta: Program's energy decomposition (eV):
siesta: Ebs     =      -142.789941
siesta: Eions   =      1621.026762
siesta: Ena     =       347.346256
siesta: Ekin    =       744.871452
siesta: Enl     =      -134.325250
siesta: Eso     =         0.000000
siesta: Edftu   =         0.000000
siesta: DEna    =       -37.211953
siesta: DUscf   =         7.769037
siesta: DUext   =         0.000000
siesta: Ex      =      -205.025360
siesta: Ec      =       -25.318912
siesta: Exc     =      -230.344272
siesta: EbV     =         0.000000
siesta: eta*DQ  =         0.000000
siesta: Emadel  =         0.000000
siesta: Emeta   =         0.000000
siesta: Emolmec =         0.000000
siesta: Ekinion =         0.000000
siesta: Eharris =      -916.851696
siesta: Etot    =      -922.921492
siesta: FreeEng =      -922.921492

        iscf     Eharris(eV)        E_KS(eV)     FreeEng(eV)     dDmax    Ef(eV) dHmax(eV)
   scf:    1     -916.851696     -922.921492     -922.921492  0.680254 -4.369350  7.409421
timer: Routine,Calls,Time,% = IterSCF        1       0.007   6.66
   scf:    2     -926.426181     -924.879777     -924.879777  0.151661 -3.531491  3.560261
   scf:    3     -925.622468     -925.419032     -925.419032  0.130015 -2.848997  0.713003
   scf:    4     -925.440466     -925.430218     -925.430218  0.009501 -2.918535  0.521595
   scf:    5     -925.446344     -925.438925     -925.438925  0.019540 -3.013171  0.171597
   scf:    6     -925.440431     -925.439719     -925.439719  0.006403 -3.023400  0.091154
   scf:    7     -925.439872     -925.439815     -925.439815  0.003140 -3.022564  0.028411
   scf:    8     -925.439827     -925.439822     -925.439822  0.000236 -3.019337  0.014102
   scf:    9     -925.439834     -925.439828     -925.439828  0.000305 -3.015354  0.009572
   scf:   10     -925.439833     -925.439831     -925.439831  0.000264 -3.013970  0.005714
   scf:   11     -925.439833     -925.439832     -925.439832  0.000274 -3.012853  0.003205
   scf:   12     -925.439832     -925.439832     -925.439832  0.000056 -3.012776  0.002474
   scf:   13     -925.439832     -925.439832     -925.439832  0.000049 -3.012780  0.001308
   scf:   14     -925.439832     -925.439832     -925.439832  0.000006 -3.012858  0.000753

SCF Convergence by DM+H criterion
max |DM_out - DM_in|         :     0.0000058600
max |H_out - H_in|      (eV) :     0.0007527327
SCF cycle converged after 14 iterations

Using DM_out to compute the final energy and forces
No. of atoms with KB's overlaping orbs in proc 0. Max # of overlaps:       5      11

siesta: E_KS(eV) =             -925.4398

siesta: E_KS - E_eggbox =      -925.4398

siesta: Atomic forces (eV/Ang):
     1    0.090585   -1.678735    0.159978
     2    2.246432    0.991683    0.215099
     3   -2.305119    0.793488    0.063020
     4    0.519126    1.558507   -0.273758
     5    1.704186   -0.673349   -0.515442
     6   -2.244008   -0.998770    0.319441
----------------------------------------
   Tot    0.011203   -0.007176   -0.031661
----------------------------------------
   Max    2.305119
   Res    1.233944    sqrt( Sum f_i^2 / 3N )
----------------------------------------
   Max    2.305119    constrained

Stress tensor Voigt[x,y,z,yz,xz,xy] (kbar):      -17.47       -6.25        0.01       -0.70        0.96       -0.70
(Free)E + p*V (eV/cell)     -921.9451
Target enthalpy (eV/cell)     -881.2280

siesta: Stress tensor (static) (eV/Ang**3):
        -0.008983   -0.000517    0.000729
        -0.000517   -0.003475   -0.000491
         0.000729   -0.000491    0.000036

siesta: Pressure (static):          6.63398462  kBar

siesta: Stress tensor (total) (eV/Ang**3):
        -0.010907   -0.000436    0.000599
        -0.000436   -0.003901   -0.000438
         0.000599   -0.000438    0.000007

siesta: Pressure (total):          7.90442608  kBar
 Anneal: Kinetic Energy=    6.1924742523074429E-002
 Anneal: Velocity scale factor =   0.98914624048810007     
Anneal: Cell scale factor = 
           0.9966963     0.0000281    -0.0000386
           0.0000281     0.9962494     0.0000282
          -0.0000386     0.0000282     0.9959994

siesta: Temp_ion =    1275.474 K

                     ====================================
                        Begin MD step =      2
                     ====================================

outcoor: Atomic coordinates (Ang):                          
    0.02359562   -0.04931322   -0.00735090   1       1  O
    0.69746432    0.67702762    0.02981632   2       2  H
   -0.71072029    0.61533918   -0.02604172   2       3  H
   -0.01767612    0.04968014    2.87946826   1       4  O
    0.65341241   -0.67300858    2.71976025   2       5  H
   -0.73522829   -0.62134832    3.02304701   2       6  H

outcell: Unit cell vectors (Ang):
        9.565165    0.000269   -0.000370
        0.000270    9.567662    0.000270
       -0.000296    0.000216    7.654927

outcell: Cell vector modules (Ang)   :    9.565165    9.567662    7.654927
outcell: Cell angles (23,13,12) (deg):     89.9968     90.0044     89.9968
outcell: Cell volume (Ang**3)        :    700.5503
Gamma-point calculation with multiply-connected orbital pairs
Folding of H and S implicitly performed
<dSpData1D:S at geom step 2
  <sparsity:sparsity for geom step 2
    nrows_g=12 nrows=3 sparsity=.2500 nnzs=36, refcount: 7>
  <dData1D:(new from dSpData1D) n=36, refcount: 1>
refcount: 1>
new_DM -- step:     2
Re-using DM from previous geometries...
Number of DMs in history: 1
 DM extrapolation coefficients: 
1   1.00000
New DM after history re-use:
<dSpData2D:SpM extrapolated using coords
  <sparsity:sparsity for geom step 2
    nrows_g=12 nrows=3 sparsity=.2500 nnzs=36, refcount: 9>
  <dData2D:(temp array for extrapolation) n=36 m=1, refcount: 1>
refcount: 1>
No. of atoms with KB's overlaping orbs in proc 0. Max # of overlaps:       5      11

InitMesh: MESH = 60 x 60 x 48 = 172800
InitMesh: Mesh cutoff (required, used) =   100.000   108.668 Ry
New grid distribution [1]: sub = 2
New grid distribution [2]: sub = 2
New grid distribution [3]: sub = 2
Setting up quadratic distribution...

        iscf     Eharris(eV)        E_KS(eV)     FreeEng(eV)     dDmax    Ef(eV) dHmax(eV)
   scf:    1     -923.618605     -924.680910     -924.680910  0.081884 -2.638691  0.809346
   scf:    2     -924.525812     -924.659332     -924.659332  0.074776 -2.220040  1.098277
   scf:    3     -924.747490     -924.721424     -924.721424  0.042609 -2.469428  0.071515
   scf:    4     -924.721622     -924.721525     -924.721525  0.001360 -2.476460  0.051115
   scf:    5     -924.721700     -924.721623     -924.721623  0.003464 -2.496492  0.006132
   scf:    6     -924.721624     -924.721624     -924.721624  0.000105 -2.497637  0.002932
   scf:    7     -924.721624     -924.721624     -924.721624  0.000094 -2.498562  0.000851

SCF Convergence by DM+H criterion
max |DM_out - DM_in|         :     0.0000938084
max |H_out - H_in|      (eV) :     0.0008512616
SCF cycle converged after 7 iterations

Using DM_out to compute the final energy and forces
No. of atoms with KB's overlaping orbs in proc 0. Max # of overlaps:       5      11

siesta: E_KS(eV) =             -924.7216

siesta: Atomic forces (eV/Ang):
     1    0.286373   -4.533334    0.113311
     2    4.274606    2.500247    0.346470
     3   -4.530165    2.153384    0.005846
     4    0.459286    4.203649   -0.198807
     5    3.813957   -2.150111   -1.079448
     6   -4.287778   -2.172597    0.789741
----------------------------------------
   Tot    0.016278    0.001237   -0.022887
----------------------------------------
   Max    4.533334
   Res    2.712456    sqrt( Sum f_i^2 / 3N )
----------------------------------------
   Max    4.533334    constrained

Stress tensor Voigt[x,y,z,yz,xz,xy] (kbar):      -30.13      -14.91       -0.13       -1.02        2.23       -0.36
(Free)E + p*V (eV/cell)     -918.1374
Target enthalpy (eV/cell)     -880.9967

siesta: Stress tensor (static) (eV/Ang**3):
        -0.016913   -0.000307    0.001517
        -0.000306   -0.008889   -0.000688
         0.001517   -0.000688   -0.000056

siesta: Pressure (static):         13.80990109  kBar

siesta: Stress tensor (total) (eV/Ang**3):
        -0.018804   -0.000227    0.001389
        -0.000227   -0.009308   -0.000636
         0.001389   -0.000636   -0.000084

siesta: Pressure (total):         15.05822683  kBar
 Anneal: Kinetic Energy=    1.5359697658898963E-002
 Anneal: Velocity scale factor =    1.0169678495464545     
Anneal: Cell scale factor = 
           0.9971115     0.0000155    -0.0000890
           0.0000155     0.9965763     0.0000419
          -0.0000890     0.0000419     0.9960087

siesta: Temp_ion =     334.413 K

                     ====================================
                        Begin MD step =      3
                     ====================================

outcoor: Atomic coordinates (Ang):                          
    0.02590938   -0.05207802   -0.00760210   1       1  O
    0.69538715    0.67498279    0.03904650   2       2  H
   -0.71062992    0.60562077   -0.02326130   2       3  H
   -0.01897164    0.05332948    2.86817193   1       4  O
    0.63043463   -0.67133894    2.68447623   2       5  H
   -0.73062037   -0.62326003    3.02569413   2       6  H

outcell: Unit cell vectors (Ang):
        9.537536    0.000417   -0.001220
        0.000417    9.534906    0.000670
       -0.000977    0.000536    7.624374

outcell: Cell vector modules (Ang)   :    9.537536    9.534906    7.624374
outcell: Cell angles (23,13,12) (deg):     89.9919     90.0147     89.9950
outcell: Cell volume (Ang**3)        :    693.3567
Gamma-point calculation with multiply-connected orbital pairs
Folding of H and S implicitly performed
<dSpData1D:S at geom step 3
  <sparsity:sparsity for geom step 3
    nrows_g=12 nrows=3 sparsity=.2500 nnzs=36, refcount: 7>
  <dData1D:(new from dSpData1D) n=36, refcount: 1>
refcount: 1>
new_DM -- step:     3
Re-using DM from previous geometries...
Number of DMs in history: 1
 DM extrapolation coefficients: 
1   1.00000
New DM after history re-use:
<dSpData2D:SpM extrapolated using coords
  <sparsity:sparsity for geom step 3
    nrows_g=12 nrows=3 sparsity=.2500 nnzs=36, refcount: 9>
  <dData2D:(temp array for extrapolation) n=36 m=1, refcount: 1>
refcount: 1>
No. of atoms with KB's overlaping orbs in proc 0. Max # of overlaps:       5      11

InitMesh: MESH = 60 x 60 x 48 = 172800
InitMesh: Mesh cutoff (required, used) =   100.000   109.379 Ry
New grid distribution [1]: sub = 2
New grid distribution [2]: sub = 2
New grid distribution [3]: sub = 2
Setting up quadratic distribution...

        iscf     Eharris(eV)        E_KS(eV)     FreeEng(eV)     dDmax    Ef(eV) dHmax(eV)
   scf:    1     -924.583789     -924.647760     -924.647760  0.031815 -2.460356  0.058594
   scf:    2     -924.648043     -924.647964     -924.647964  0.005287 -2.467621  0.021087
   scf:    3     -924.648033     -924.648005     -924.648005  0.001288 -2.468396  0.009747
   scf:    4     -924.648008     -924.648007     -924.648007  0.000151 -2.469693  0.005447
   scf:    5     -924.648009     -924.648008     -924.648008  0.000232 -2.471239  0.003505
   scf:    6     -924.648008     -924.648008     -924.648008  0.000136 -2.471738  0.002025
   scf:    7     -924.648008     -924.648008     -924.648008  0.000133 -2.472129  0.000443
   scf:    8     -924.648008     -924.648008     -924.648008  0.000015 -2.472128  0.000262

SCF Convergence by DM+H criterion
max |DM_out - DM_in|         :     0.0000150285
max |H_out - H_in|      (eV) :     0.0002619335
SCF cycle converged after 8 iterations

Using DM_out to compute the final energy and forces
No. of atoms with KB's overlaping orbs in proc 0. Max # of overlaps:       5      11

siesta: E_KS(eV) =             -924.6480

siesta: Atomic forces (eV/Ang):
     1    0.373812   -4.722099    0.072536
     2    4.329568    2.590440    0.395036
     3   -4.667027    2.232672    0.008642
     4    0.056107    4.450616   -0.041768
     5    4.249722   -2.495436   -1.363463
     6   -4.318819   -2.047573    0.916525
----------------------------------------
   Tot    0.023363    0.008620   -0.012492
----------------------------------------
   Max    4.722099
   Res    2.832989    sqrt( Sum f_i^2 / 3N )
----------------------------------------
   Max    4.722099    constrained

Stress tensor Voigt[x,y,z,yz,xz,xy] (kbar):      -28.83      -15.18       -0.37       -1.41        2.75        0.29
(Free)E + p*V (eV/cell)     -918.2462
Target enthalpy (eV/cell)     -881.3721

siesta: Stress tensor (static) (eV/Ang**3):
        -0.017560    0.000115    0.001845
         0.000114   -0.009372   -0.000916
         0.001845   -0.000916   -0.000147

siesta: Pressure (static):         14.46220394  kBar

siesta: Stress tensor (total) (eV/Ang**3):
        -0.017994    0.000179    0.001717
         0.000179   -0.009477   -0.000882
         0.001717   -0.000882   -0.000228

siesta: Pressure (total):         14.79304852  kBar
 Anneal: Kinetic Energy=    1.5885571975290731E-002
 Anneal: Velocity scale factor =    1.0157590838741084     
Anneal: Cell scale factor = 
           0.9971398    -0.0000055    -0.0001200
          -0.0000055     0.9966128     0.0000618
          -0.0001199     0.0000618     0.9960238

siesta: Temp_ion =     345.041 K

                     ====================================
                        Begin MD step =      4
                     ====================================

outcoor: Atomic coordinates (Ang):                          
    0.02851494   -0.05780102   -0.00781858   1       1  O
    0.73529079    0.69806506    0.05231177   2       2  H
   -0.75587594    0.61739414   -0.02029759   2       3  H
   -0.02034962    0.05984589    2.85694630   1       4  O
    0.64808582   -0.69386557    2.63546765   2       5  H
   -0.76792188   -0.64506781    3.03766743   2       6  H

outcell: Unit cell vectors (Ang):
        9.510257    0.000363   -0.002359
        0.000364    9.502609    0.001257
       -0.001889    0.001006    7.594058

outcell: Cell vector modules (Ang)   :    9.510257    9.502609    7.594058
outcell: Cell angles (23,13,12) (deg):     89.9848     90.0285     89.9956
outcell: Cell volume (Ang**3)        :    686.2921
Gamma-point calculation with multiply-connected orbital pairs
Folding of H and S implicitly performed
<dSpData1D:S at geom step 4
  <sparsity:sparsity for geom step 4
    nrows_g=12 nrows=3 sparsity=.2500 nnzs=36, refcount: 7>
  <dData1D:(new from dSpData1D) n=36, refcount: 1>
refcount: 1>
new_DM -- step:     4
Re-using DM from previous geometries...
Number of DMs in history: 1
 DM extrapolation coefficients: 
1   1.00000
New DM after history re-use:
<dSpData2D:SpM extrapolated using coords
  <sparsity:sparsity for geom step 4
    nrows_g=12 nrows=3 sparsity=.2500 nnzs=36, refcount: 9>
  <dData2D:(temp array for extrapolation) n=36 m=1, refcount: 1>
refcount: 1>
No. of atoms with KB's overlaping orbs in proc 0. Max # of overlaps:       5      11

InitMesh: MESH = 60 x 60 x 48 = 172800
InitMesh: Mesh cutoff (required, used) =   100.000   110.007 Ry
New grid distribution [1]: sub = 2
New grid distribution [2]: sub = 2
New grid distribution [3]: sub = 2
Setting up quadratic distribution...

        iscf     Eharris(eV)        E_KS(eV)     FreeEng(eV)     dDmax    Ef(eV) dHmax(eV)
   scf:    1     -926.019327     -925.310411     -925.310411  0.083885 -2.809789  0.895702
   scf:    2     -925.070080     -925.268917     -925.268917  0.085861 -3.270015  1.279300
   scf:    3     -925.397325     -925.359665     -925.359665  0.048978 -2.994571  0.061417
   scf:    4     -925.359823     -925.359745     -925.359745  0.001079 -2.986937  0.045007
   scf:    5     -925.359917     -925.359836     -925.359836  0.002512 -2.972760  0.007864
   scf:    6     -925.359845     -925.359841     -925.359841  0.000446 -2.971439  0.002556
   scf:    7     -925.359842     -925.359842     -925.359842  0.000164 -2.971087  0.000642
   scf:    8     -925.359842     -925.359842     -925.359842  0.000017 -2.971133  0.000412

SCF Convergence by DM+H criterion
max |DM_out - DM_in|         :     0.0000173975
max |H_out - H_in|      (eV) :     0.0004119985
SCF cycle converged after 8 iterations

Using DM_out to compute the final energy and forces
No. of atoms with KB's overlaping orbs in proc 0. Max # of overlaps:       5      11

siesta: E_KS(eV) =             -925.3598

siesta: Atomic forces (eV/Ang):
     1    0.233811   -2.024374    0.112181
     2    2.311547    1.138680    0.286159
     3   -2.494852    0.927672    0.069074
     4   -0.253649    1.876215    0.012328
     5    2.567023   -1.217348   -1.021203
     6   -2.331449   -0.686808    0.540380
----------------------------------------
   Tot    0.032432    0.014037   -0.001081
----------------------------------------
   Max    2.567023
   Res    1.431300    sqrt( Sum f_i^2 / 3N )
----------------------------------------
   Max    2.567023    constrained

Stress tensor Voigt[x,y,z,yz,xz,xy] (kbar):      -16.84       -6.91       -0.47       -1.54        2.23        0.49
(Free)E + p*V (eV/cell)     -921.9024
Target enthalpy (eV/cell)     -882.5249

siesta: Stress tensor (static) (eV/Ang**3):
        -0.010282    0.000335    0.001367
         0.000335   -0.004119   -0.000910
         0.001367   -0.000910   -0.000067

siesta: Pressure (static):          7.72676934  kBar

siesta: Stress tensor (total) (eV/Ang**3):
        -0.010510    0.000306    0.001393
         0.000306   -0.004311   -0.000959
         0.001393   -0.000958   -0.000293

siesta: Pressure (total):          8.07148881  kBar
 Anneal: Kinetic Energy=    6.6206617145422378E-002
 Anneal: Velocity scale factor =   0.98854418745268002     
Anneal: Cell scale factor = 
           0.9967542    -0.0000165    -0.0001078
          -0.0000165     0.9963063     0.0000694
          -0.0001078     0.0000693     0.9960308

siesta: Temp_ion =    1362.009 K

                     ====================================
                        Begin MD step =      5
                     ====================================

outcoor: Atomic coordinates (Ang):                          
    0.03117186   -0.06453333   -0.00796273   1       1  O
    0.79549438    0.73091010    0.06786753   2       2  H
   -0.82300653    0.63732724   -0.01675769   2       3  H
   -0.02180310    0.06728457    2.84578947   1       4  O
    0.68918316   -0.72691181    2.57806358   2       5  H
   -0.82575188   -0.67240403    3.05405896   2       6  H

outcell: Unit cell vectors (Ang):
        9.479389    0.000205   -0.003375
        0.000206    9.467510    0.001911
       -0.002701    0.001528    7.563916

outcell: Cell vector modules (Ang)   :    9.479390    9.467510    7.563917
outcell: Cell angles (23,13,12) (deg):     89.9769     90.0409     89.9975
outcell: Cell volume (Ang**3)        :    678.8327
Gamma-point calculation with multiply-connected orbital pairs
Folding of H and S implicitly performed
<dSpData1D:S at geom step 5
  <sparsity:sparsity for geom step 5
    nrows_g=12 nrows=3 sparsity=.2500 nnzs=36, refcount: 7>
  <dData1D:(new from dSpData1D) n=36, refcount: 1>
refcount: 1>
new_DM -- step:     5
Re-using DM from previous geometries...
Number of DMs in history: 1
 DM extrapolation coefficients: 
1   1.00000
New DM after history re-use:
<dSpData2D:SpM extrapolated using coords
  <sparsity:sparsity for geom step 5
    nrows_g=12 nrows=3 sparsity=.2500 nnzs=36, refcount: 9>
  <dData2D:(temp array for extrapolation) n=36 m=1, refcount: 1>
refcount: 1>
No. of atoms with KB's overlaping orbs in proc 0. Max # of overlaps:       5      11

InitMesh: MESH = 60 x 60 x 48 = 172800
InitMesh: Mesh cutoff (required, used) =   100.000   110.725 Ry
New grid distribution [1]: sub = 2
New grid distribution [2]: sub = 2
New grid distribution [3]: sub = 2
Setting up quadratic distribution...

        iscf     Eharris(eV)        E_KS(eV)     FreeEng(eV)     dDmax    Ef(eV) dHmax(eV)
   scf:    1     -926.402715     -925.592046     -925.592046  0.118703 -3.418730  1.390011
   scf:    2     -924.662038     -925.395031     -925.395031  0.146963 -4.123057  2.366945
   scf:    3     -925.850725     -925.723660     -925.723660  0.088125 -3.672865  0.100062
   scf:    4     -925.724104     -925.723893     -925.723893  0.001483 -3.657118  0.074184
   scf:    5     -925.724335     -925.724124     -925.724124  0.003024 -3.637631  0.026500
   scf:    6     -925.724198     -925.724165     -925.724165  0.001473 -3.630802  0.004278
   scf:    7     -925.724168     -925.724167     -925.724167  0.000304 -3.629791  0.001169
   scf:    8     -925.724167     -925.724167     -925.724167  0.000036 -3.629771  0.000533

SCF Convergence by DM+H criterion
max |DM_out - DM_in|         :     0.0000363912
max |H_out - H_in|      (eV) :     0.0005334682
SCF cycle converged after 8 iterations

Using DM_out to compute the final energy and forces
No. of atoms with KB's overlaping orbs in proc 0. Max # of overlaps:       5      11

siesta: E_KS(eV) =             -925.7242

siesta: Atomic forces (eV/Ang):
     1    0.044436    0.686819    0.206093
     2    0.151217   -0.346514    0.114971
     3   -0.127922   -0.367038    0.124398
     4   -0.303508   -0.871468   -0.074533
     5    0.495856    0.323879   -0.392935
     6   -0.219804    0.590882    0.028534
----------------------------------------
   Tot    0.040275    0.016560    0.006528
----------------------------------------
   Max    0.871468
   Res    0.380018    sqrt( Sum f_i^2 / 3N )
----------------------------------------
   Max    0.871468    constrained

Stress tensor Voigt[x,y,z,yz,xz,xy] (kbar):       -4.19        1.98       -0.38       -1.32        1.27        0.36
(Free)E + p*V (eV/cell)     -925.3588
Target enthalpy (eV/cell)     -883.3548

siesta: Stress tensor (static) (eV/Ang**3):
        -0.001123    0.000300    0.000472
         0.000300    0.001903   -0.000653
         0.000472   -0.000653    0.000181

siesta: Pressure (static):         -0.51310684  kBar

siesta: Stress tensor (total) (eV/Ang**3):
        -0.002617    0.000222    0.000789
         0.000222    0.001238   -0.000825
         0.000790   -0.000825   -0.000236

siesta: Pressure (total):          0.86243664  kBar
 Anneal: Kinetic Energy=    8.9816108450440288E-002
 Anneal: Velocity scale factor =   0.98625208819185828     
Anneal: Cell scale factor = 
           0.9962150    -0.0000159    -0.0000612
          -0.0000159     0.9959260     0.0000568
          -0.0000612     0.0000567     0.9960216

siesta: Temp_ion =    1839.148 K

                     ====================================
                        Begin MD step =      6
                     ====================================

outcoor: Atomic coordinates (Ang):                          
    0.03374384   -0.07059091   -0.00797789   1       1  O
    0.85454367    0.75898297    0.08396823   2       2  H
   -0.88851101    0.65279751   -0.01219913   2       3  H
   -0.02324849    0.07388269    2.83460030   1       4  O
    0.73321351   -0.75542915    2.51866750   2       5  H
   -0.88300587   -0.69292052    3.06971118   2       6  H

outcell: Unit cell vectors (Ang):
        9.443510    0.000053   -0.003942
        0.000054    9.428940    0.002441
       -0.003154    0.001951    7.533824

outcell: Cell vector modules (Ang)   :    9.443511    9.428940    7.533825
outcell: Cell angles (23,13,12) (deg):     89.9703     90.0479     89.9994
outcell: Cell volume (Ang**3)        :    670.8288
Gamma-point calculation with multiply-connected orbital pairs
Folding of H and S implicitly performed
<dSpData1D:S at geom step 6
  <sparsity:sparsity for geom step 6
    nrows_g=12 nrows=3 sparsity=.2500 nnzs=36, refcount: 7>
  <dData1D:(new from dSpData1D) n=36, refcount: 1>
refcount: 1>
new_DM -- step:     6
Re-using DM from previous geometries...
Number of DMs in history: 1
 DM extrapolation coefficients: 
1   1.00000
New DM after history re-use:
<dSpData2D:SpM extrapolated using coords
  <sparsity:sparsity for geom step 6
    nrows_g=12 nrows=3 sparsity=.2500 nnzs=36, refcount: 9>
  <dData2D:(temp array for extrapolation) n=36 m=1, refcount: 1>
refcount: 1>
Note: For starting DM, Qtot, Tr[D*S] =         16.00000000         15.97473131
No. of atoms with KB's overlaping orbs in proc 0. Max # of overlaps:       5      11

InitMesh: MESH = 60 x 60 x 48 = 172800
InitMesh: Mesh cutoff (required, used) =   100.000   111.568 Ry
New grid distribution [1]: sub = 2
New grid distribution [2]: sub = 2
New grid distribution [3]: sub = 2
Setting up quadratic distribution...

        iscf     Eharris(eV)        E_KS(eV)     FreeEng(eV)     dDmax    Ef(eV) dHmax(eV)
   scf:    1     -925.980853     -925.363842     -925.363842  0.106371 -0.860793  1.407752
   scf:    2     -923.982295     -925.035714     -925.035714  0.168307 -4.698302  2.783464
   scf:    3     -925.672455     -925.504772     -925.504772  0.106167 -1.082992  0.107159
   scf:    4     -925.505368     -925.505093     -925.505093  0.001417 -1.067921  0.079415
   scf:    5     -925.505619     -925.505367     -925.505367  0.002786 -1.052794  0.032442
   scf:    6     -925.505478     -925.505431     -925.505431  0.001766 -1.045284  0.003571
   scf:    7     -925.505433     -925.505432     -925.505432  0.000229 -1.044576  0.000915
   scf:    8     -925.505432     -925.505432     -925.505432  0.000031 -1.044507  0.000504

SCF Convergence by DM+H criterion
max |DM_out - DM_in|         :     0.0000307589
max |H_out - H_in|      (eV) :     0.0005039829
SCF cycle converged after 8 iterations

Using DM_out to compute the final energy and forces
No. of atoms with KB's overlaping orbs in proc 0. Max # of overlaps:       5      11

siesta: E_KS(eV) =             -925.5054

siesta: Atomic forces (eV/Ang):
     1   -0.075923    2.254150    0.293298
     2   -1.261233   -1.232519   -0.027016
     3    1.424455   -1.103163    0.153576
     4   -0.266374   -2.527825   -0.187834
     5   -0.941167    1.313737    0.138036
     6    1.168133    1.312036   -0.360852
----------------------------------------
   Tot    0.047892    0.016416    0.009209
----------------------------------------
   Max    2.527825
   Res    1.152202    sqrt( Sum f_i^2 / 3N )
----------------------------------------
   Max    2.527825    constrained

Stress tensor Voigt[x,y,z,yz,xz,xy] (kbar):        6.09        8.28       -0.06       -0.91        0.18        0.24
(Free)E + p*V (eV/cell)     -927.5031
Target enthalpy (eV/cell)     -883.6356

siesta: Stress tensor (static) (eV/Ang**3):
         0.006045    0.000205   -0.000374
         0.000205    0.005922   -0.000336
        -0.000374   -0.000335    0.000482

siesta: Pressure (static):         -6.64913498  kBar

siesta: Stress tensor (total) (eV/Ang**3):
         0.003803    0.000153    0.000111
         0.000153    0.005170   -0.000569
         0.000111   -0.000569   -0.000039

siesta: Pressure (total):         -4.77108865  kBar
 Anneal: Kinetic Energy=    6.9049392926637809E-002
 Anneal: Velocity scale factor =   0.98818554741469056     
Anneal: Cell scale factor = 
           0.9957282    -0.0000120    -0.0000041
          -0.0000120     0.9956476     0.0000338
          -0.0000041     0.0000337     0.9960013

siesta: Temp_ion =    1419.461 K

                     ====================================
                        Begin MD step =      7
                     ====================================

outcoor: Atomic coordinates (Ang):                          
    0.03616929   -0.07509022   -0.00781472   1       1  O
    0.89935498    0.77425811    0.09932749   2       2  H
   -0.93801032    0.65712938   -0.00639335   2       3  H
   -0.02463481    0.07868045    2.82328059   1       4  O
    0.76670078   -0.77042748    2.46216178   2       5  H
   -0.92676563   -0.70022155    3.08104162   2       6  H

outcell: Unit cell vectors (Ang):
        9.403169   -0.000061   -0.003965
       -0.000059    9.387902    0.002749
       -0.003172    0.002197    7.503699

outcell: Cell vector modules (Ang)   :    9.403170    9.387902    7.503700
outcell: Cell angles (23,13,12) (deg):     89.9664     90.0484     90.0007
outcell: Cell volume (Ang**3)        :    662.3965
Gamma-point calculation with multiply-connected orbital pairs
Folding of H and S implicitly performed
<dSpData1D:S at geom step 7
  <sparsity:sparsity for geom step 7
    nrows_g=12 nrows=3 sparsity=.2500 nnzs=36, refcount: 7>
  <dData1D:(new from dSpData1D) n=36, refcount: 1>
refcount: 1>
new_DM -- step:     7
Re-using DM from previous geometries...
Number of DMs in history: 1
 DM extrapolation coefficients: 
1   1.00000
New DM after history re-use:
<dSpData2D:SpM extrapolated using coords
  <sparsity:sparsity for geom step 7
    nrows_g=12 nrows=3 sparsity=.2500 nnzs=36, refcount: 9>
  <dData2D:(temp array for extrapolation) n=36 m=1, refcount: 1>
refcount: 1>
Note: For starting DM, Qtot, Tr[D*S] =         16.00000000         15.97509988
No. of atoms with KB's overlaping orbs in proc 0. Max # of overlaps:       5      11

InitMesh: MESH = 60 x 60 x 48 = 172800
InitMesh: Mesh cutoff (required, used) =   100.000   112.527 Ry
New grid distribution [1]: sub = 2
New grid distribution [2]: sub = 2
New grid distribution [3]: sub = 2
Setting up quadratic distribution...

        iscf     Eharris(eV)        E_KS(eV)     FreeEng(eV)     dDmax    Ef(eV) dHmax(eV)
   scf:    1     -925.469584     -925.041279     -925.041279  0.067309 -1.385595  1.018382
   scf:    2     -924.135419     -924.813004     -924.813004  0.131318 -1.861297  2.224289
   scf:    3     -925.214597     -925.114580     -925.114580  0.086668 -1.532269  0.082749
   scf:    4     -925.114974     -925.114787     -925.114787  0.001137 -1.522203  0.060057
   scf:    5     -925.115134     -925.114970     -925.114970  0.002271 -1.510038  0.019445
   scf:    6     -925.115010     -925.114992     -925.114992  0.001024 -1.505612  0.001879
   scf:    7     -925.114993     -925.114992     -925.114992  0.000107 -1.505212  0.000759
   scf:    8     -925.114992     -925.114992     -925.114992  0.000021 -1.505151  0.000452

SCF Convergence by DM+H criterion
max |DM_out - DM_in|         :     0.0000206341
max |H_out - H_in|      (eV) :     0.0004522453
SCF cycle converged after 8 iterations

Using DM_out to compute the final energy and forces
No. of atoms with KB's overlaping orbs in proc 0. Max # of overlaps:       5      11

siesta: E_KS(eV) =             -925.1150

siesta: Atomic forces (eV/Ang):
     1   -0.128694    2.906132    0.351306
     2   -2.007492   -1.624151   -0.120503
     3    2.241625   -1.400677    0.166242
     4   -0.223730   -3.236568   -0.270583
     5   -1.734009    1.774171    0.483413
     6    1.904594    1.596720   -0.599840
----------------------------------------
   Tot    0.052294    0.015628    0.010036
----------------------------------------
   Max    3.236568
   Res    1.595236    sqrt( Sum f_i^2 / 3N )
----------------------------------------
   Max    3.236568    constrained

Stress tensor Voigt[x,y,z,yz,xz,xy] (kbar):       14.02       11.90        0.42       -0.43       -0.89        0.18
(Free)E + p*V (eV/cell)     -928.7444
Target enthalpy (eV/cell)     -883.7715

siesta: Stress tensor (static) (eV/Ang**3):
         0.010562    0.000127   -0.000993
         0.000127    0.007856   -0.000077
        -0.000993   -0.000077    0.000766

siesta: Pressure (static):        -10.24555121  kBar

siesta: Stress tensor (total) (eV/Ang**3):
         0.008749    0.000110   -0.000554
         0.000110    0.007429   -0.000269
        -0.000553   -0.000269    0.000260

siesta: Pressure (total):         -8.77872626  kBar
 Anneal: Kinetic Energy=    3.4984518136118935E-002
 Anneal: Velocity scale factor =   0.99628677276470479     
Anneal: Cell scale factor = 
           0.9953806    -0.0000084     0.0000463
          -0.0000084     0.9955037     0.0000102
           0.0000463     0.0000102     0.9959774

siesta: Temp_ion =     731.023 K

                     ====================================
                        Begin MD step =      8
                     ====================================

outcoor: Atomic coordinates (Ang):                          
    0.03846341   -0.07776349   -0.00743980   1       1  O
    0.92403235    0.77371621    0.11332824   2       2  H
   -0.96505135    0.64796320    0.00083898   2       3  H
   -0.02598024    0.08138350    2.81177367   1       4  O
    0.78299856   -0.76824627    2.41100162   2       5  H
   -0.95121274   -0.69218201    3.08625446   2       6  H

outcell: Unit cell vectors (Ang):
        9.359732   -0.000140   -0.003513
       -0.000138    9.345691    0.002834
       -0.002809    0.002264    7.473514

outcell: Cell vector modules (Ang)   :    9.359732    9.345691    7.473515
outcell: Cell angles (23,13,12) (deg):     89.9653     90.0430     90.0017
outcell: Cell volume (Ang**3)        :    653.7318
Gamma-point calculation with multiply-connected orbital pairs
Folding of H and S implicitly performed
<dSpData1D:S at geom step 8
  <sparsity:sparsity for geom step 8
    nrows_g=12 nrows=3 sparsity=.2500 nnzs=36, refcount: 7>
  <dData1D:(new from dSpData1D) n=36, refcount: 1>
refcount: 1>
new_DM -- step:     8
Re-using DM from previous geometries...
Number of DMs in history: 1
 DM extrapolation coefficients: 
1   1.00000
New DM after history re-use:
<dSpData2D:SpM extrapolated using coords
  <sparsity:sparsity for geom step 8
    nrows_g=12 nrows=3 sparsity=.2500 nnzs=36, refcount: 9>
  <dData2D:(temp array for extrapolation) n=36 m=1, refcount: 1>
refcount: 1>
No. of atoms with KB's overlaping orbs in proc 0. Max # of overlaps:       5      12

InitMesh: MESH = 60 x 60 x 48 = 172800
InitMesh: Mesh cutoff (required, used) =   100.000   113.574 Ry
New grid distribution [1]: sub = 2
New grid distribution [2]: sub = 2
New grid distribution [3]: sub = 2
Setting up quadratic distribution...

        iscf     Eharris(eV)        E_KS(eV)     FreeEng(eV)     dDmax    Ef(eV) dHmax(eV)
   scf:    1     -925.096349     -924.884874     -924.884874  0.024018 -1.632024  0.383757
   scf:    2     -924.755705     -924.851692     -924.851692  0.049383 -1.794965  0.863661
   scf:    3     -924.907906     -924.894515     -924.894515  0.033763 -1.678713  0.037926
   scf:    4     -924.894628     -924.894572     -924.894572  0.000809 -1.675102  0.026711
   scf:    5     -924.894671     -924.894627     -924.894627  0.001768 -1.667974  0.002437
   scf:    6     -924.894628     -924.894627     -924.894627  0.000144 -1.667518  0.001133
   scf:    7     -924.894627     -924.894627     -924.894627  0.000041 -1.667388  0.000478

SCF Convergence by DM+H criterion
max |DM_out - DM_in|         :     0.0000410655
max |H_out - H_in|      (eV) :     0.0004783232
SCF cycle converged after 7 iterations

Using DM_out to compute the final energy and forces
No. of atoms with KB's overlaping orbs in proc 0. Max # of overlaps:       5      12

siesta: E_KS(eV) =             -924.8946

siesta: Atomic forces (eV/Ang):
     1   -0.138047    2.991894    0.378019
     2   -2.320855   -1.702128   -0.172269
     3    2.583014   -1.432817    0.173257
     4   -0.174961   -3.339416   -0.317798
     5   -2.103984    1.891916    0.673916
     6    2.210590    1.605560   -0.727238
----------------------------------------
   Tot    0.055758    0.015010    0.007888
----------------------------------------
   Max    3.339416
   Res    1.730745    sqrt( Sum f_i^2 / 3N )
----------------------------------------
   Max    3.339416    constrained

Stress tensor Voigt[x,y,z,yz,xz,xy] (kbar):       19.10       13.01        0.96        0.01       -1.75        0.10
(Free)E + p*V (eV/cell)     -929.3930
Target enthalpy (eV/cell)     -884.0919

siesta: Stress tensor (static) (eV/Ang**3):
         0.012824    0.000056   -0.001366
         0.000056    0.008234    0.000086
        -0.001366    0.000087    0.001017

siesta: Pressure (static):        -11.78971299  kBar

siesta: Stress tensor (total) (eV/Ang**3):
         0.011923    0.000061   -0.001095
         0.000060    0.008120    0.000003
        -0.001094    0.000004    0.000601

siesta: Pressure (total):        -11.02462959  kBar
 Anneal: Kinetic Energy=    1.4172675925645114E-002
 Anneal: Velocity scale factor =    1.0200196806806028     
Anneal: Cell scale factor = 
           0.9951912    -0.0000050     0.0000820
          -0.0000050     0.9954781    -0.0000089
           0.0000820    -0.0000089     0.9959550

siesta: Temp_ion =     310.424 K

                     ====================================
                        Begin MD step =      9
                     ====================================

outcoor: Atomic coordinates (Ang):                          
    0.04074093   -0.07869676   -0.00681921   1       1  O
    0.92688865    0.75671805    0.12612929   2       2  H
   -0.96778210    0.62467260    0.00993793   2       3  H
   -0.02737726    0.08208047    2.80004735   1       4  O
    0.77939806   -0.74775651    2.36511046   2       5  H
   -0.95479029   -0.66844629    3.08491552   2       6  H

outcell: Unit cell vectors (Ang):
        9.314723   -0.000186   -0.002731
       -0.000184    9.303430    0.002739
       -0.002183    0.002187    7.443284

outcell: Cell vector modules (Ang)   :    9.314723    9.303431    7.443284
outcell: Cell angles (23,13,12) (deg):     89.9663     90.0336     90.0023
outcell: Cell volume (Ang**3)        :    645.0265
Gamma-point calculation with multiply-connected orbital pairs
Folding of H and S implicitly performed
<dSpData1D:S at geom step 9
  <sparsity:sparsity for geom step 9
    nrows_g=12 nrows=3 sparsity=.2500 nnzs=36, refcount: 7>
  <dData1D:(new from dSpData1D) n=36, refcount: 1>
refcount: 1>
new_DM -- step:     9
Re-using DM from previous geometries...
Number of DMs in history: 1
 DM extrapolation coefficients: 
1   1.00000
New DM after history re-use:
<dSpData2D:SpM extrapolated using coords
  <sparsity:sparsity for geom step 9
    nrows_g=12 nrows=3 sparsity=.2500 nnzs=36, refcount: 9>
  <dData2D:(temp array for extrapolation) n=36 m=1, refcount: 1>
refcount: 1>
No. of atoms with KB's overlaping orbs in proc 0. Max # of overlaps:       5      12

InitMesh: MESH = 60 x 60 x 48 = 172800
InitMesh: Mesh cutoff (required, used) =   100.000   114.674 Ry
New grid distribution [1]: sub = 2
New grid distribution [2]: sub = 2
New grid distribution [3]: sub = 2
Setting up quadratic distribution...

        iscf     Eharris(eV)        E_KS(eV)     FreeEng(eV)     dDmax    Ef(eV) dHmax(eV)
   scf:    1     -924.818581     -924.967800     -924.967800  0.041200 -1.590609  0.401207
   scf:    2     -924.847858     -924.937094     -924.937094  0.052065 -1.395425  0.850213
   scf:    3     -924.989089     -924.976857     -924.976857  0.035360 -1.531815  0.023978
   scf:    4     -924.976955     -924.976907     -924.976907  0.000889 -1.532802  0.016545
   scf:    5     -924.976985     -924.976951     -924.976951  0.001974 -1.535749  0.002737
   scf:    6     -924.976951     -924.976951     -924.976951  0.000080 -1.536083  0.001122
   scf:    7     -924.976951     -924.976951     -924.976951  0.000059 -1.536246  0.000509

SCF Convergence by DM+H criterion
max |DM_out - DM_in|         :     0.0000593566
max |H_out - H_in|      (eV) :     0.0005087492
SCF cycle converged after 7 iterations

Using DM_out to compute the final energy and forces
No. of atoms with KB's overlaping orbs in proc 0. Max # of overlaps:       5      12

siesta: E_KS(eV) =             -924.9770

siesta: Atomic forces (eV/Ang):
     1   -0.116211    2.659996    0.371374
     2   -2.320516   -1.544526   -0.186184
     3    2.580486   -1.273706    0.181603
     4   -0.093753   -2.999408   -0.335550
     5   -2.190496    1.768528    0.740539
     6    2.198935    1.402861   -0.766471
----------------------------------------
   Tot    0.058445    0.013745    0.005311
----------------------------------------
   Max    2.999408
   Res    1.638584    sqrt( Sum f_i^2 / 3N )
----------------------------------------
   Max    2.999408    constrained

Stress tensor Voigt[x,y,z,yz,xz,xy] (kbar):       20.66       11.65        1.43        0.32       -2.25       -0.03
(Free)E + p*V (eV/cell)     -929.5062
Target enthalpy (eV/cell)     -884.7176

siesta: Stress tensor (static) (eV/Ang**3):
         0.013104   -0.000041   -0.001493
        -0.000042    0.007366    0.000145
        -0.001493    0.000146    0.001212

siesta: Pressure (static):        -11.57942556  kBar

siesta: Stress tensor (total) (eV/Ang**3):
         0.012897   -0.000019   -0.001407
        -0.000020    0.007274    0.000198
        -0.001407    0.000198    0.000894

siesta: Pressure (total):        -11.25011424  kBar
 Anneal: Kinetic Energy=    1.6219242453178902E-002
 Anneal: Velocity scale factor =    1.0150320681213749     
Anneal: Cell scale factor = 
           0.9951633    -0.0000004     0.0001000
          -0.0000004     0.9955550    -0.0000216
           0.0001000    -0.0000217     0.9959371

siesta: Temp_ion =     351.784 K

                     ====================================
                        Begin MD step =     10
                     ====================================

outcoor: Atomic coordinates (Ang):                          
    0.04299699   -0.07804332   -0.00595724   1       1  O
    0.90745962    0.72457366    0.13742256   2       2  H
   -0.94570213    0.58869134    0.02097201   2       3  H
   -0.02881817    0.08094470    2.78810283   1       4  O
    0.75464479   -0.70990182    2.32561138   2       5  H
   -0.93722115   -0.63081807    3.07639174   2       6  H

outcell: Unit cell vectors (Ang):
        9.269670   -0.000189   -0.001788
       -0.000186    9.262077    0.002527
       -0.001428    0.002016    7.413042

outcell: Cell vector modules (Ang)   :    9.269670    9.262077    7.413043
outcell: Cell angles (23,13,12) (deg):     89.9688     90.0221     90.0023
outcell: Cell volume (Ang**3)        :    636.4570
Gamma-point calculation with multiply-connected orbital pairs
Folding of H and S implicitly performed
<dSpData1D:S at geom step 10
  <sparsity:sparsity for geom step 10
    nrows_g=12 nrows=3 sparsity=.2500 nnzs=36, refcount: 7>
  <dData1D:(new from dSpData1D) n=36, refcount: 1>
refcount: 1>
new_DM -- step:    10
Re-using DM from previous geometries...
Number of DMs in history: 1
 DM extrapolation coefficients: 
1   1.00000
New DM after history re-use:
<dSpData2D:SpM extrapolated using coords
  <sparsity:sparsity for geom step 10
    nrows_g=12 nrows=3 sparsity=.2500 nnzs=36, refcount: 9>
  <dData2D:(temp array for extrapolation) n=36 m=1, refcount: 1>
refcount: 1>
Note: For starting DM, Qtot, Tr[D*S] =         16.00000000         16.03249551
No. of atoms with KB's overlaping orbs in proc 0. Max # of overlaps:       5      12

InitMesh: MESH = 60 x 60 x 48 = 172800
InitMesh: Mesh cutoff (required, used) =   100.000   115.791 Ry
New grid distribution [1]: sub = 2
New grid distribution [2]: sub = 2
New grid distribution [3]: sub = 2
Setting up quadratic distribution...

        iscf     Eharris(eV)        E_KS(eV)     FreeEng(eV)     dDmax    Ef(eV) dHmax(eV)
   scf:    1     -924.586004     -925.264487     -925.264487  0.092280 -4.334259  1.031333
   scf:    2     -924.506791     -925.077059     -925.077059  0.128482 -2.250637  2.095255
   scf:    3     -925.411524     -925.330851     -925.330851  0.086431 -2.621560  0.083439
   scf:    4     -925.331324     -925.331098     -925.331098  0.001814 -2.625368  0.057619
   scf:    5     -925.331452     -925.331291     -925.331291  0.003177 -2.636895  0.013743
   scf:    6     -925.331306     -925.331299     -925.331299  0.000692 -2.641323  0.003897
   scf:    7     -925.331300     -925.331300     -925.331300  0.000113 -2.642157  0.001515
   scf:    8     -925.331300     -925.331300     -925.331300  0.000044 -2.642258  0.001099
   scf:    9     -925.331300     -925.331300     -925.331300  0.000045 -2.642276  0.000498

SCF Convergence by DM+H criterion
max |DM_out - DM_in|         :     0.0000445069
max |H_out - H_in|      (eV) :     0.0004983262
SCF cycle converged after 9 iterations

Using DM_out to compute the final energy and forces
No. of atoms with KB's overlaping orbs in proc 0. Max # of overlaps:       5      12

siesta: E_KS(eV) =             -925.3313

siesta: Atomic forces (eV/Ang):
     1   -0.057055    1.878116    0.312886
     2   -1.969071   -1.127557   -0.145891
     3    2.189084   -0.913109    0.197718
     4    0.063355   -2.205189   -0.318437
     5   -1.996622    1.409127    0.651350
     6    1.832289    0.970877   -0.695992
----------------------------------------
   Tot    0.061981    0.012266    0.001634
----------------------------------------
   Max    2.205189
   Res    1.304102    sqrt( Sum f_i^2 / 3N )
----------------------------------------
   Max    2.205189    constrained

Stress tensor Voigt[x,y,z,yz,xz,xy] (kbar):       17.74        7.81        1.71        0.40       -2.19       -0.26
(Free)E + p*V (eV/cell)     -928.9405
Target enthalpy (eV/cell)     -885.6068

siesta: Stress tensor (static) (eV/Ang**3):
         0.011124   -0.000209   -0.001299
        -0.000209    0.005297    0.000055
        -0.001299    0.000055    0.001300

siesta: Pressure (static):         -9.46380247  kBar

siesta: Stress tensor (total) (eV/Ang**3):
         0.011074   -0.000161   -0.001366
        -0.000161    0.004872    0.000249
        -0.001366    0.000249    0.001067

siesta: Pressure (total):         -9.08553087  kBar
 Anneal: Kinetic Energy=    3.7686657670376711E-002
 Anneal: Velocity scale factor =   0.99511346912029064     
Anneal: Cell scale factor = 
           0.9953175     0.0000075     0.0000933
           0.0000075     0.9957217    -0.0000232
           0.0000933    -0.0000232     0.9959272

siesta: Temp_ion =     785.632 K

siesta: Program's energy decomposition (eV):
siesta: Ebs     =      -182.311475
siesta: Eions   =      1621.026762
siesta: Ena     =       348.153908
siesta: Ekin    =       678.720303
siesta: Enl     =      -111.003530
siesta: Eso     =         0.000000
siesta: Edftu   =         0.000000
siesta: DEna    =        -5.456094
siesta: DUscf   =         3.025312
siesta: DUext   =         0.000000
siesta: Ex      =      -193.047354
siesta: Ec      =       -24.697082
siesta: Exc     =      -217.744437
siesta: EbV     =         0.000000
siesta: eta*DQ  =         0.000000
siesta: Emadel  =         0.000000
siesta: Emeta   =         0.000000
siesta: Emolmec =         0.000000
siesta: Ekinion =         0.507754
siesta: Eharris =      -924.823546
siesta: Etot    =      -924.823546
siesta: FreeEng =      -924.823546

siesta: Final energy (eV):
siesta:  Band Struct. =    -182.311475
siesta:       Kinetic =     678.720303
siesta:       Hartree =     895.628567
siesta:         Edftu =       0.000000
siesta:       Eso     =       0.000000
siesta:    Ext. field =       0.000000
siesta:         Exch. =    -193.047354
siesta:         Corr. =     -24.697082
siesta:     Bulk bias =       0.000000
siesta:   Exch.-corr. =    -217.744437
siesta:  Ion-electron =   -2367.039255
siesta:       Ion-ion =      85.103522
siesta:       Ekinion =       0.507754
siesta: D3 dispersion =       0.000000
siesta:         Total =    -924.823546
siesta:         Fermi =      -2.642276

siesta: Atomic forces (eV/Ang):
siesta:      1   -0.057055    1.878116    0.312886
siesta:      2   -1.969071   -1.127557   -0.145891
siesta:      3    2.189084   -0.913109    0.197718
siesta:      4    0.063355   -2.205189   -0.318437
siesta:      5   -1.996622    1.409127    0.651350
siesta:      6    1.832289    0.970877   -0.695992
siesta: ----------------------------------------
siesta:    Tot    0.061981    0.012266    0.001634

siesta: Stress tensor (static) (eV/Ang**3):
siesta:     0.011124   -0.000209   -0.001299
siesta:    -0.000209    0.005297    0.000055
siesta:    -0.001299    0.000055    0.001300

siesta: Cell volume =        636.456981 Ang**3

siesta: Pressure (static):
siesta:                Solid            Molecule  Units
siesta:          -0.00006433          0.00000360  Ry/Bohr**3
siesta:          -0.00590684          0.00033071  eV/Ang**3
siesta:          -9.46380247          0.52985469  kBar
(Free)E+ p_basis*V_orbitals  =        -924.681286
(Free)Eharris+ p_basis*V_orbitals  =        -924.681286

siesta: Electric dipole (a.u.)  =   -0.121316    0.018505   -0.000028
siesta: Electric dipole (Debye) =   -0.308355    0.047035   -0.000072

cite: Please see "anneal_pt.bib" for an exhaustive BiBTeX file.
cite: Please clearly indicate Siesta version in published work: 5.1-MaX-50-g4df4b742f-dirty
cite: This calculation has made use of the following articles
cite: which are encouraged to be cited in a published work.
        Primary SIESTA paper
          DOI: www.doi.org/10.1088/0953-8984/14/11/302


>> End of run:   5-SEP-2024  22:08:08
Job completed
