Siesta Version  : 5.0.0-beta1-20-g7fc69e9ee-dirty
Architecture    : ----
Compiler version: GNU-11.4.0
Compiler flags  : -fallow-argument-mismatch;-O3 -march=native
PP flags        : ----
Libraries       : ----
Parallelisations: none
NetCDF support
NetCDF-4 support
Lua support

Runtime information:
* Directory : /home/fnpedron/Siesta/siesta-dev/Tests/09.MolecularDynamics/work/nose_half_restart
* Running in serial mode.
>> Start of run:  11-DEC-2023  14:25:55

                           *********************** 
                           *  WELCOME TO SIESTA  * 
                           *********************** 

reinit: Reading from standard input
reinit: Dumping input in INPUT_TMP.40764
************************** Dump of input data file ****************************
%include ../../base_wat2.fdf
SystemLabel           nose
MD.TypeOfRun          Nose
MD.InitialTemperature 100 K
MD.TargetTemperature  600 K
************************** End of input data file *****************************

reinit: -----------------------------------------------------------------------
reinit: System Name: Water molecules MD
reinit: -----------------------------------------------------------------------
reinit: System Label: nose
reinit: -----------------------------------------------------------------------

initatom: Reading input for the pseudopotentials and atomic orbitals ----------
Species number:   1 Atomic number:    8 Label: O
Species number:   2 Atomic number:    1 Label: H


---- Processing specs for species: O
Ground state valence configuration:   2s02  2p04
Reading pseudopotential information in formatted form from:
  /home/fnpedron/Siesta/siesta-dev/Tests/Pseudos/O.psf

---- Processing specs for species: H
Ground state valence configuration:   1s01
Reading pseudopotential information in formatted form from:
  /home/fnpedron/Siesta/siesta-dev/Tests/Pseudos/H.psf

---- Pseudopotential check for O 

Pseudized shells:
2s( 2.00) rc: 1.14
2p( 4.00) rc: 1.14
3d( 0.00) rc: 1.14
4f( 0.00) rc: 1.14
Valence configuration for ps generation: (assumed as above)

---- Pseudopotential check for H 

Pseudized shells:
1s( 1.00) rc: 1.25
2p( 0.00) rc: 1.25
3d( 0.00) rc: 1.25
4f( 0.00) rc: 1.25
Valence configuration for ps generation: (assumed as above)
For O, standard SIESTA heuristics set lmxkb to 2
 (one more than the basis l, including polarization orbitals).
Use PS.lmax or PS.KBprojectors blocks to override.
For H, standard SIESTA heuristics set lmxkb to 1
 (one more than the basis l, including polarization orbitals).
Use PS.lmax or PS.KBprojectors blocks to override.

<basis_specs>
===============================================================================
O                    Z=   8    Mass=  15.999        Charge= 0.17977+309
Lmxo=1 Lmxkb= 2    BasisType=split      Semic=F
L=0  Nsemic=0  Cnfigmx=2
          i=1  nzeta=1  polorb=0  (2s)
            splnorm:   0.15000    
               vcte:    40.000    
               rinn:  -0.90000    
               qcoe:    0.0000    
               qyuk:    0.0000    
               qwid:   0.10000E-01
                rcs:    0.0000    
            lambdas:    1.0000    
L=1  Nsemic=0  Cnfigmx=2
          i=1  nzeta=1  polorb=0  (2p)
            splnorm:   0.15000    
               vcte:    40.000    
               rinn:  -0.90000    
               qcoe:    0.0000    
               qyuk:    0.0000    
               qwid:   0.10000E-01
                rcs:    0.0000    
            lambdas:    1.0000    
-------------------------------------------------------------------------------
L=0  Nkbl=1  erefs: 0.17977+309
L=1  Nkbl=1  erefs: 0.17977+309
L=2  Nkbl=1  erefs: 0.17977+309
===============================================================================
</basis_specs>

Using PAO.SplitTailNorm
atom: Called for O                     (Z =   8)
Maximum radius (at nrval) set to   50.00000 8518

read_vps: Pseudopotential generation method:
read_vps: ATM3      Troullier-Martins                       
Valence charge in pseudo generation:    6.00000

xc_check: Exchange-correlation functional:
xc_check: Ceperley-Alder
V l=0 = -2*Zval/r beyond r=  1.1366
V l=1 = -2*Zval/r beyond r=  1.1332
V l=2 = -2*Zval/r beyond r=  1.1298
All V_l potentials equal beyond r=  1.1355
This should be close to max(r_c) in ps generation
All pots = -2*Zval/r beyond r=  1.1366
Using small-core scheme (local charge) for Vlocal

VLOCAL_FROM_CHLOCAL: 99.0% of the norm of Vloc inside     33.667 Ry
VLOCAL_FROM_CHLOCAL: 99.9% of the norm of Vloc inside     76.727 Ry
atom: Maximum radius for chlocal:    1.37241
atom: Maximum radius for r*vlocal+2*Zval:    1.25469

KBgen: Kleinman-Bylander projectors: 
GHOST: No ghost state for L =  0
   l= 0   rc=  1.293209   el= -1.742414   Ekb=  9.076872   kbcos=  0.325320
GHOST: No ghost state for L =  1
   l= 1   rc=  1.284119   el= -0.676589   Ekb= -8.194485   kbcos= -0.396010
GHOST: No ghost state for L =  2
   l= 2   rc=  1.433152   el=  0.013307   Ekb= -2.071665   kbcos= -0.003690

KBgen: Total number of Kleinman-Bylander projectors:   9
atom: -------------------------------------------------------------------------

atom: SANKEY-TYPE ORBITALS:

SPLIT: Orbitals with angular momentum L= 0

SPLIT: Basis orbitals for state 2s

SPLIT: PAO cut-off radius determined from an
SPLIT: energy shift=  0.010000 Ry
Split based on tail norm

   izeta = 1
                 lambda =    1.000000
                     rc =    3.560943
                 energy =   -1.731321
                kinetic =    1.587329
    potential(screened) =   -3.318651
       potential(ionic) =  -11.260325

SPLIT: Orbitals with angular momentum L= 1

SPLIT: Basis orbitals for state 2p

SPLIT: PAO cut-off radius determined from an
SPLIT: energy shift=  0.010000 Ry
Split based on tail norm

   izeta = 1
                 lambda =    1.000000
                     rc =    4.290924
                 energy =   -0.665565
                kinetic =    4.934810
    potential(screened) =   -5.600376
       potential(ionic) =  -13.346429
atom: Total number of Sankey-type orbitals:  4

atm_pop: Valence configuration (for local Pseudopot. screening):
 2s( 2.00)                                                            
 2p( 4.00)                                                            
Vna: chval, zval:    6.00000   6.00000

Vna:  Cut-off radius for the neutral-atom potential:   4.290924

atom: _________________________________________________________________________

<basis_specs>
===============================================================================
H                    Z=   1    Mass=  1.0080        Charge= 0.17977+309
Lmxo=0 Lmxkb= 1    BasisType=split      Semic=F
L=0  Nsemic=0  Cnfigmx=1
          i=1  nzeta=1  polorb=0  (1s)
            splnorm:   0.15000    
               vcte:    40.000    
               rinn:  -0.90000    
               qcoe:    0.0000    
               qyuk:    0.0000    
               qwid:   0.10000E-01
                rcs:    0.0000    
            lambdas:    1.0000    
-------------------------------------------------------------------------------
L=0  Nkbl=1  erefs: 0.17977+309
L=1  Nkbl=1  erefs: 0.17977+309
===============================================================================
</basis_specs>

Using PAO.SplitTailNorm
atom: Called for H                     (Z =   1)
Maximum radius (at nrval) set to   50.00000 8518

read_vps: Pseudopotential generation method:
read_vps: ATM3      Troullier-Martins                       
Valence charge in pseudo generation:    1.00000

xc_check: Exchange-correlation functional:
xc_check: Ceperley-Alder
V l=0 = -2*Zval/r beyond r=  1.2384
V l=1 = -2*Zval/r beyond r=  1.2321
All V_l potentials equal beyond r=  1.2371
This should be close to max(r_c) in ps generation
All pots = -2*Zval/r beyond r=  1.2384
Using small-core scheme (local charge) for Vlocal

VLOCAL_FROM_CHLOCAL: 99.0% of the norm of Vloc inside     28.363 Ry
VLOCAL_FROM_CHLOCAL: 99.9% of the norm of Vloc inside     64.639 Ry
atom: Maximum radius for chlocal:    1.44620
atom: Maximum radius for r*vlocal+2*Zval:    1.31026

KBgen: Kleinman-Bylander projectors: 
GHOST: No ghost state for L =  0
   l= 0   rc=  1.364142   el= -0.467325   Ekb= -2.009475   kbcos= -0.336680
GHOST: No ghost state for L =  1
   l= 1   rc=  1.430269   el=  0.007562   Ekb= -0.503817   kbcos= -0.022554

KBgen: Total number of Kleinman-Bylander projectors:   4
atom: -------------------------------------------------------------------------

atom: SANKEY-TYPE ORBITALS:

SPLIT: Orbitals with angular momentum L= 0

SPLIT: Basis orbitals for state 1s

SPLIT: PAO cut-off radius determined from an
SPLIT: energy shift=  0.010000 Ry
Split based on tail norm

   izeta = 1
                 lambda =    1.000000
                     rc =    5.285354
                 energy =   -0.456120
                kinetic =    0.900445
    potential(screened) =   -1.356565
       potential(ionic) =   -1.890080
atom: Total number of Sankey-type orbitals:  1

atm_pop: Valence configuration (for local Pseudopot. screening):
 1s( 1.00)                                                            
Vna: chval, zval:    1.00000   1.00000

Vna:  Cut-off radius for the neutral-atom potential:   5.285354

atom: _________________________________________________________________________

prinput: Basis input 

PAO.BasisType split     

%block ChemicalSpeciesLabel
    1    8 O                       # Species index, atomic number, species label
    2    1 H                       # Species index, atomic number, species label
%endblock ChemicalSpeciesLabel

%block PAO.Basis                 # Define Basis set
# WARNING: This information might be incomplete!
O                     2                    # Species label, number of l-shells
 n=2   0   1                         # n, l, Nzeta 
   3.561   
   1.000   
 n=2   1   1                         # n, l, Nzeta 
   4.291   
   1.000   
H                     1                    # Species label, number of l-shells
 n=1   0   1                         # n, l, Nzeta 
   5.285   
   1.000   
%endblock PAO.Basis

prinput: ----------------------------------------------------------------------

Dumping basis to NetCDF file O.ion.nc
Dumping basis to NetCDF file H.ion.nc
coor:   Atomic-coordinates input format  =     Cartesian coordinates
coor:                                          (in Angstroms)

ioxv: Reading coordinates and velocities from file
! Info in XV file prevails over previous structure input
WARNING: nose.NOSE_RESTART not found--reading only XV file and moving back 1 time step using Euler

siesta: Atomic coordinates (Bohr) and species
siesta:      0.03211  -0.08628  -0.01186  1        1
siesta:      1.51819   1.39471   0.03501  2        2
siesta:     -1.54048   1.30616  -0.04713  2        3
siesta:     -0.02430   0.08313   5.72570  1        4
siesta:      1.49514  -1.36834   5.46426  2        5
siesta:     -1.59455  -1.27833   5.90392  2        6

siesta: System type = chain     

initatomlists: Number of atoms, orbitals, and projectors:      6    12    34

siesta: ******************** Simulation parameters ****************************
siesta:
siesta: The following are some of the parameters of the simulation.
siesta: A complete list of the parameters used, including default values,
siesta: can be found in file out.fdf
siesta:
redata: Spin configuration                          = none
redata: Number of spin components                   = 1
redata: Time-Reversal Symmetry                      = T
redata: Spin spiral                                 = F
redata: Long output                                 =   F
redata: Number of Atomic Species                    =        2
redata: Charge density info will appear in .RHO file
redata: Write Mulliken Pop.                         = NO
redata: Matel table size (NRTAB)                    =     1024
redata: Mesh Cutoff                                 =   100.0000 Ry
redata: Net charge of the system                    =     0.0000 |e|
redata: Min. number of SCF Iter                     =        0
redata: Max. number of SCF Iter                     =     1000
redata: SCF convergence failure will abort job
redata: SCF mix quantity                            = Hamiltonian
redata: Mix DM or H after convergence               =   F
redata: Recompute H after scf cycle                 =   F
redata: Mix DM in first SCF step                    =   T
redata: Write Pulay info on disk                    =   F
redata: New DM Occupancy tolerance                  = 0.000000000001
redata: No kicks to SCF
redata: DM Mixing Weight for Kicks                  =     0.5000
redata: Require Harris convergence for SCF          =   F
redata: Harris energy tolerance for SCF             =     0.000100 eV
redata: Require DM convergence for SCF              =   T
redata: DM tolerance for SCF                        =     0.000100
redata: Require EDM convergence for SCF             =   F
redata: EDM tolerance for SCF                       =     0.001000 eV
redata: Require H convergence for SCF               =   T
redata: Hamiltonian tolerance for SCF               =     0.001000 eV
redata: Require (free) Energy convergence for SCF   =   F
redata: (free) Energy tolerance for SCF             =     0.000100 eV
redata: Using DFT-D3 dispersion                     =   F
redata: Using Saved Data (generic)                  =   F
redata: Use continuation files for DM               =   T
redata: Neglect nonoverlap interactions             =   F
redata: Method of Calculation                       = Diagonalization
redata: Electronic Temperature                      =   299.9863 K
redata: Fix the spin of the system                  =   F
redata: Max. number of TDED Iter                    =        1
redata: Number of TDED substeps                     =        3
redata: Dynamics option                             = Nose thermostat MD run
redata: Initial MD time step                        =        1
redata:   Final MD time step                        =       10
redata: Length of MD time step                      =     1.0000 fs
redata: Initial Temperature of MD run               =   100.0000 K
redata: Perform a MD quench                         =   F
redata: Nose mass                                   =  1360.5693 eV*fs**2
redata: Target Temperature                          =   600.0000 Kelvin
mix.SCF: Pulay mixing                            = Pulay
mix.SCF:    Variant                              = stable
mix.SCF:    History steps                        = 2
mix.SCF:    Linear mixing weight                 =     0.250000
mix.SCF:    Mixing weight                        =     0.250000
mix.SCF:    SVD condition                        = 0.1000E-07
redata: Save all siesta data in one NC              =   F
redata: ***********************************************************************

%block SCF.Mixers
  Pulay
%endblock SCF.Mixers

%block SCF.Mixer.Pulay
  # Mixing method
  method pulay
  variant stable

  # Mixing options
  weight 0.2500
  weight.linear 0.2500
  history 2
%endblock SCF.Mixer.Pulay

Size of DM history Fstack: 1
Total number of electrons:    16.000000
Total ionic charge:    16.000000

siesta: k-grid: Number of k-points = 1
siesta: k-point is Gamma-only

diag: Algorithm                                     = D&C
diag: Used triangular part                          = Lower
diag: Absolute tolerance                            =  0.100E-15
diag: Orthogonalization factor                      =  0.100E-05
diag: Memory factor                                 =  1.0000


ts: **************************************************************
ts: Save H and S matrices                           =    F
ts: Save DM and EDM matrices                        =    F
ts: Only save the overlap matrix S                  =    F
ts: **************************************************************

************************ Begin: TS CHECKS AND WARNINGS ************************
************************ End: TS CHECKS AND WARNINGS **************************


                     ====================================
                        Begin MD step =      1
                     ====================================

outcoor: Atomic coordinates (Ang):                          
    0.01699180   -0.04565924   -0.00627349   1       1  O
    0.80339213    0.73804815    0.01852666   2       2  H
   -0.81518681    0.69118866   -0.02493929   2       3  H
   -0.01286072    0.04399126    3.02990933   1       4  O
    0.79119334   -0.72409220    2.89156324   2       5  H
   -0.84380040   -0.67646455    3.12422254   2       6  H

outcell: Unit cell vectors (Ang):
       10.000004    0.000000    0.000000
        0.000000   10.000004    0.000000
        0.000000    0.000000    8.000003

outcell: Cell vector modules (Ang)   :   10.000004   10.000004    8.000003
outcell: Cell angles (23,13,12) (deg):     90.0000     90.0000     90.0000
outcell: Cell volume (Ang**3)        :    800.0010
Gamma-point calculation with multiply-connected orbital pairs
Folding of H and S implicitly performed
<dSpData1D:S at geom step 1
  <sparsity:sparsity for geom step 1
    nrows_g=12 nrows=12 sparsity=1.0000 nnzs=144, refcount: 7>
  <dData1D:(new from dSpData1D) n=144, refcount: 1>
refcount: 1>
new_DM -- step:     1
Initializing Density Matrix...

Attempting to read DM from file... Failed...
DM filled with atomic data:
<dSpData2D:DM initialized from atoms
  <sparsity:sparsity for geom step 1
    nrows_g=12 nrows=12 sparsity=1.0000 nnzs=144, refcount: 8>
  <dData2D:DM n=144 m=1, refcount: 1>
refcount: 1>
No. of atoms with KB's overlaping orbs in proc 0. Max # of overlaps:       6       8

InitMesh: MESH = 64 x 64 x 50 = 204800
InitMesh: Mesh cutoff (required, used) =   100.000   107.960 Ry
New grid distribution [1]: sub = 2

stepf: Fermi-Dirac step function

siesta: Program's energy decomposition (eV):
siesta: Ebs     =      -134.690710
siesta: Eions   =      1621.026762
siesta: Ena     =       347.500093
siesta: Ekin    =       736.045622
siesta: Enl     =      -130.679066
siesta: Eso     =         0.000000
siesta: Edftu   =         0.000000
siesta: DEna    =       -34.320245
siesta: DUscf   =         7.561191
siesta: DUext   =         0.000000
siesta: Ex      =      -202.978823
siesta: Ec      =       -25.203223
siesta: Exc     =      -228.182046
siesta: EbV     =         0.000000
siesta: eta*DQ  =         0.000000
siesta: Emadel  =         0.000000
siesta: Emeta   =         0.000000
siesta: Emolmec =         0.000000
siesta: Ekinion =         0.000000
siesta: Eharris =      -919.642581
siesta: Etot    =      -923.101213
siesta: FreeEng =      -923.101213

        iscf     Eharris(eV)        E_KS(eV)     FreeEng(eV)     dDmax    Ef(eV) dHmax(eV)
   scf:    1     -919.642581     -923.101213     -923.101213  0.663643 -4.907474  7.391714
timer: Routine,Calls,Time,% = IterSCF        1       0.016  12.56
   scf:    2     -926.800075     -925.221805     -925.221805  0.161762 -4.065120  3.242234
   scf:    3     -925.818074     -925.667294     -925.667294  0.112536 -3.509421  0.735550
   scf:    4     -925.693098     -925.680738     -925.680738  0.010383 -3.571527  0.527681
   scf:    5     -925.700142     -925.691194     -925.691194  0.020819 -3.651813  0.170763
   scf:    6     -925.692585     -925.691938     -925.691938  0.006481 -3.659498  0.084996
   scf:    7     -925.691984     -925.691973     -925.691973  0.002367 -3.657362  0.031041
   scf:    8     -925.691980     -925.691977     -925.691977  0.000156 -3.654298  0.015901
   scf:    9     -925.691998     -925.691990     -925.691990  0.000358 -3.650161  0.010171
   scf:   10     -925.691997     -925.691994     -925.691994  0.000288 -3.648583  0.006118
   scf:   11     -925.691996     -925.691995     -925.691995  0.000252 -3.647520  0.004384
   scf:   12     -925.691995     -925.691995     -925.691995  0.000074 -3.647396  0.003522
   scf:   13     -925.691995     -925.691995     -925.691995  0.000069 -3.647406  0.001930
   scf:   14     -925.691995     -925.691995     -925.691995  0.000010 -3.647535  0.001022
   scf:   15     -925.691995     -925.691995     -925.691995  0.000010 -3.647732  0.000561

SCF Convergence by DM+H criterion
max |DM_out - DM_in|         :     0.0000101936
max |H_out - H_in|      (eV) :     0.0005611932
SCF cycle converged after 15 iterations

Using DM_out to compute the final energy and forces
No. of atoms with KB's overlaping orbs in proc 0. Max # of overlaps:       6       8

siesta: E_KS(eV) =             -925.6920

siesta: E_KS - E_eggbox =      -925.6920

siesta: Atomic forces (eV/Ang):
     1   -0.030376    0.999943    0.187248
     2    0.134647   -0.454178    0.094758
     3   -0.083019   -0.489046    0.095274
     4    0.392687   -0.854799    0.321705
     5   -0.319223    0.588816   -0.064109
     6   -0.088640    0.201398   -0.054924
----------------------------------------
   Tot    0.006075   -0.007867    0.579952
----------------------------------------
   Max    0.999943
   Res    0.409398    sqrt( Sum f_i^2 / 3N )
----------------------------------------
   Max    0.999943    constrained

Stress tensor Voigt[x,y,z,yz,xz,xy] (kbar):       -3.77        1.59        0.01       -0.36       -0.10       -0.59
(Free)E + p*V (eV/cell)     -925.3293
Target enthalpy (eV/cell)     -925.6920

siesta: Stress tensor (static) (eV/Ang**3):
         0.000019   -0.000442    0.000018
        -0.000442    0.001644   -0.000280
         0.000018   -0.000280    0.000074

siesta: Pressure (static):         -0.92772680  kBar

siesta: Stress tensor (total) (eV/Ang**3):
        -0.002356   -0.000370   -0.000060
        -0.000370    0.000990   -0.000223
        -0.000060   -0.000223    0.000005

siesta: Pressure (total):          0.72643745  kBar

siesta: Temp_ion =    1915.775 K

                     ====================================
                        Begin MD step =      2
                     ====================================

outcoor: Atomic coordinates (Ang):                          
    0.01877250   -0.04367659   -0.00656629   1       1  O
    0.74068779    0.69843366    0.02314008   2       2  H
   -0.75129432    0.64914788   -0.02214090   2       3  H
   -0.01400203    0.04297594    3.03520081   1       4  O
    0.71481823   -0.68886883    2.88390648   2       5  H
   -0.77835583   -0.64517720    3.12806993   2       6  H

outcell: Unit cell vectors (Ang):
       10.000004    0.000000    0.000000
        0.000000   10.000004    0.000000
        0.000000    0.000000    8.000003

outcell: Cell vector modules (Ang)   :   10.000004   10.000004    8.000003
outcell: Cell angles (23,13,12) (deg):     90.0000     90.0000     90.0000
outcell: Cell volume (Ang**3)        :    800.0010
Gamma-point calculation with multiply-connected orbital pairs
Folding of H and S implicitly performed
<dSpData1D:S at geom step 2
  <sparsity:sparsity for geom step 2
    nrows_g=12 nrows=12 sparsity=1.0000 nnzs=144, refcount: 7>
  <dData1D:(new from dSpData1D) n=144, refcount: 1>
refcount: 1>
new_DM -- step:     2
Re-using DM from previous geometries...
Number of DMs in history: 1
 DM extrapolation coefficients: 
1   1.00000
New DM after history re-use:
<dSpData2D:SpM extrapolated using coords
  <sparsity:sparsity for geom step 2
    nrows_g=12 nrows=12 sparsity=1.0000 nnzs=144, refcount: 9>
  <dData2D:(temp array for extrapolation) n=144 m=1, refcount: 1>
refcount: 1>
Note: For starting DM, Qtot, Tr[D*S] =         16.00000000         16.02031864
No. of atoms with KB's overlaping orbs in proc 0. Max # of overlaps:       6       8

InitMesh: MESH = 64 x 64 x 50 = 204800
InitMesh: Mesh cutoff (required, used) =   100.000   107.960 Ry
New grid distribution [1]: sub = 2

        iscf     Eharris(eV)        E_KS(eV)     FreeEng(eV)     dDmax    Ef(eV) dHmax(eV)
   scf:    1     -923.604461     -925.259175     -925.259175  0.124833 -3.174774  1.352631
   scf:    2     -924.670171     -925.154260     -925.154260  0.130430 -2.475647  2.017069
   scf:    3     -925.460857     -925.374753     -925.374753  0.078592 -2.909281  0.127895
   scf:    4     -925.375471     -925.375124     -925.375124  0.002558 -2.918366  0.089855
   scf:    5     -925.375680     -925.375436     -925.375436  0.005644 -2.944596  0.017645
   scf:    6     -925.375452     -925.375445     -925.375445  0.000388 -2.949618  0.007585
   scf:    7     -925.375448     -925.375447     -925.375447  0.000185 -2.952185  0.003319
   scf:    8     -925.375448     -925.375447     -925.375447  0.000072 -2.952156  0.002286
   scf:    9     -925.375448     -925.375448     -925.375448  0.000123 -2.951980  0.000469
   scf:   10     -925.375448     -925.375448     -925.375448  0.000022 -2.951887  0.000199

SCF Convergence by DM+H criterion
max |DM_out - DM_in|         :     0.0000221742
max |H_out - H_in|      (eV) :     0.0001985236
SCF cycle converged after 10 iterations

Using DM_out to compute the final energy and forces
No. of atoms with KB's overlaping orbs in proc 0. Max # of overlaps:       6       8

siesta: E_KS(eV) =             -925.3754

siesta: Atomic forces (eV/Ang):
     1    0.086987   -1.991228    0.176074
     2    2.401754    1.126187    0.187386
     3   -2.468573    0.954562    0.045402
     4    0.473241    1.916493    0.241034
     5    1.951631   -0.865311   -0.500833
     6   -2.436194   -1.146338    0.259922
----------------------------------------
   Tot    0.008847   -0.005633    0.408985
----------------------------------------
   Max    2.468573
   Res    1.377652    sqrt( Sum f_i^2 / 3N )
----------------------------------------
   Max    2.468573    constrained

Stress tensor Voigt[x,y,z,yz,xz,xy] (kbar):      -17.65       -6.89       -0.02       -0.60        0.81       -0.53
(Free)E + p*V (eV/cell)     -921.2865
Target enthalpy (eV/cell)     -925.3754

siesta: Stress tensor (static) (eV/Ang**3):
        -0.008643   -0.000401    0.000584
        -0.000401   -0.003650   -0.000433
         0.000584   -0.000433    0.000055

siesta: Pressure (static):          6.53585341  kBar

siesta: Stress tensor (total) (eV/Ang**3):
        -0.011016   -0.000329    0.000506
        -0.000329   -0.004304   -0.000376
         0.000506   -0.000376   -0.000014

siesta: Pressure (total):          8.18898425  kBar

siesta: Temp_ion =    1424.459 K

                     ====================================
                        Begin MD step =      3
                     ====================================

outcoor: Atomic coordinates (Ang):                          
    0.02060269   -0.04289706   -0.00675252   1       1  O
    0.70105693    0.66965513    0.02953811   2       2  H
   -0.71111632    0.61630560   -0.01891288   2       3  H
   -0.01485631    0.04311713    3.04062884   1       4  O
    0.65723401   -0.66197915    2.87147225   2       5  H
   -0.73631862   -0.62490487    3.13439693   2       6  H

outcell: Unit cell vectors (Ang):
       10.000004    0.000000    0.000000
        0.000000   10.000004    0.000000
        0.000000    0.000000    8.000003

outcell: Cell vector modules (Ang)   :   10.000004   10.000004    8.000003
outcell: Cell angles (23,13,12) (deg):     90.0000     90.0000     90.0000
outcell: Cell volume (Ang**3)        :    800.0010
Gamma-point calculation with multiply-connected orbital pairs
Folding of H and S implicitly performed
<dSpData1D:S at geom step 3
  <sparsity:sparsity for geom step 3
    nrows_g=12 nrows=12 sparsity=1.0000 nnzs=144, refcount: 7>
  <dData1D:(new from dSpData1D) n=144, refcount: 1>
refcount: 1>
new_DM -- step:     3
Re-using DM from previous geometries...
Number of DMs in history: 1
 DM extrapolation coefficients: 
1   1.00000
New DM after history re-use:
<dSpData2D:SpM extrapolated using coords
  <sparsity:sparsity for geom step 3
    nrows_g=12 nrows=12 sparsity=1.0000 nnzs=144, refcount: 9>
  <dData2D:(temp array for extrapolation) n=144 m=1, refcount: 1>
refcount: 1>
No. of atoms with KB's overlaping orbs in proc 0. Max # of overlaps:       6      11

InitMesh: MESH = 64 x 64 x 50 = 204800
InitMesh: Mesh cutoff (required, used) =   100.000   107.960 Ry
New grid distribution [1]: sub = 2

        iscf     Eharris(eV)        E_KS(eV)     FreeEng(eV)     dDmax    Ef(eV) dHmax(eV)
   scf:    1     -923.470707     -924.561236     -924.561236  0.089470 -2.568139  0.849292
   scf:    2     -924.395854     -924.539569     -924.539569  0.077106 -2.123638  1.130410
   scf:    3     -924.635183     -924.606673     -924.606673  0.043618 -2.385525  0.073912
   scf:    4     -924.606886     -924.606782     -924.606782  0.001413 -2.392414  0.052859
   scf:    5     -924.606968     -924.606886     -924.606886  0.003585 -2.412015  0.006838
   scf:    6     -924.606888     -924.606887     -924.606887  0.000110 -2.413286  0.003322
   scf:    7     -924.606888     -924.606888     -924.606888  0.000109 -2.414311  0.000906
   scf:    8     -924.606888     -924.606888     -924.606888  0.000018 -2.414312  0.000641

SCF Convergence by DM+H criterion
max |DM_out - DM_in|         :     0.0000180392
max |H_out - H_in|      (eV) :     0.0006413150
SCF cycle converged after 8 iterations

Using DM_out to compute the final energy and forces
No. of atoms with KB's overlaping orbs in proc 0. Max # of overlaps:       6      11

siesta: E_KS(eV) =             -924.6069

siesta: Atomic forces (eV/Ang):
     1    0.264498   -4.949198    0.123816
     2    4.454503    2.683850    0.308678
     3   -4.700167    2.383797    0.001117
     4    0.245368    4.745095    0.297370
     5    4.239493   -2.512506   -1.107897
     6   -4.492019   -2.353095    0.606886
----------------------------------------
   Tot    0.011676   -0.002058    0.229970
----------------------------------------
   Max    4.949198
   Res    2.922674    sqrt( Sum f_i^2 / 3N )
----------------------------------------
   Max    4.949198    constrained

Stress tensor Voigt[x,y,z,yz,xz,xy] (kbar):      -27.82      -14.56       -0.18       -1.06        1.80        0.00
(Free)E + p*V (eV/cell)     -917.5223
Target enthalpy (eV/cell)     -924.6069

siesta: Stress tensor (static) (eV/Ang**3):
        -0.015698   -0.000110    0.001220
        -0.000110   -0.008534   -0.000727
         0.001220   -0.000727   -0.000034

siesta: Pressure (static):         12.95933423  kBar

siesta: Stress tensor (total) (eV/Ang**3):
        -0.017365    0.000001    0.001125
         0.000001   -0.009087   -0.000659
         0.001125   -0.000659   -0.000115

siesta: Pressure (total):         14.18850645  kBar

siesta: Temp_ion =     366.783 K

                     ====================================
                        Begin MD step =      4
                     ====================================

outcoor: Atomic coordinates (Ang):                          
    0.02258872   -0.04510088   -0.00686379   1       1  O
    0.70409957    0.66659690    0.03887566   2       2  H
   -0.71596209    0.60632209   -0.01568036   2       3  H
   -0.01556111    0.04611692    3.04622562   1       4  O
    0.64030166   -0.65916763    2.84846735   2       5  H
   -0.73731828   -0.62717358    3.14651528   2       6  H

outcell: Unit cell vectors (Ang):
       10.000004    0.000000    0.000000
        0.000000   10.000004    0.000000
        0.000000    0.000000    8.000003

outcell: Cell vector modules (Ang)   :   10.000004   10.000004    8.000003
outcell: Cell angles (23,13,12) (deg):     90.0000     90.0000     90.0000
outcell: Cell volume (Ang**3)        :    800.0010
Gamma-point calculation with multiply-connected orbital pairs
Folding of H and S implicitly performed
<dSpData1D:S at geom step 4
  <sparsity:sparsity for geom step 4
    nrows_g=12 nrows=12 sparsity=1.0000 nnzs=144, refcount: 7>
  <dData1D:(new from dSpData1D) n=144, refcount: 1>
refcount: 1>
new_DM -- step:     4
Re-using DM from previous geometries...
Number of DMs in history: 1
 DM extrapolation coefficients: 
1   1.00000
New DM after history re-use:
<dSpData2D:SpM extrapolated using coords
  <sparsity:sparsity for geom step 4
    nrows_g=12 nrows=12 sparsity=1.0000 nnzs=144, refcount: 9>
  <dData2D:(temp array for extrapolation) n=144 m=1, refcount: 1>
refcount: 1>
No. of atoms with KB's overlaping orbs in proc 0. Max # of overlaps:       6      11

InitMesh: MESH = 64 x 64 x 50 = 204800
InitMesh: Mesh cutoff (required, used) =   100.000   107.960 Ry
New grid distribution [1]: sub = 2

        iscf     Eharris(eV)        E_KS(eV)     FreeEng(eV)     dDmax    Ef(eV) dHmax(eV)
   scf:    1     -924.599033     -924.605265     -924.605265  0.028623 -2.401270  0.059927
   scf:    2     -924.605592     -924.605480     -924.605480  0.006292 -2.406175  0.015152
   scf:    3     -924.605533     -924.605510     -924.605510  0.001054 -2.406229  0.007611
   scf:    4     -924.605512     -924.605511     -924.605511  0.000275 -2.406589  0.004540
   scf:    5     -924.605512     -924.605512     -924.605512  0.000100 -2.406901  0.003081
   scf:    6     -924.605512     -924.605512     -924.605512  0.000132 -2.407165  0.002336
   scf:    7     -924.605512     -924.605512     -924.605512  0.000136 -2.407361  0.001139
   scf:    8     -924.605512     -924.605512     -924.605512  0.000060 -2.407427  0.000570

SCF Convergence by DM+H criterion
max |DM_out - DM_in|         :     0.0000596905
max |H_out - H_in|      (eV) :     0.0005696882
SCF cycle converged after 8 iterations

Using DM_out to compute the final energy and forces
No. of atoms with KB's overlaping orbs in proc 0. Max # of overlaps:       6      11

siesta: E_KS(eV) =             -924.6055

siesta: Atomic forces (eV/Ang):
     1    0.322524   -4.941404    0.091058
     2    4.345666    2.685714    0.345072
     3   -4.645382    2.378138    0.008368
     4   -0.159442    4.778886    0.294607
     5    4.504343   -2.746631   -1.360416
     6   -4.353114   -2.151224    0.674141
----------------------------------------
   Tot    0.014595    0.003480    0.052830
----------------------------------------
   Max    4.941404
   Res    2.931131    sqrt( Sum f_i^2 / 3N )
----------------------------------------
   Max    4.941404    constrained

Stress tensor Voigt[x,y,z,yz,xz,xy] (kbar):      -25.54      -13.91       -0.36       -1.43        2.16        0.46
(Free)E + p*V (eV/cell)     -917.9797
Target enthalpy (eV/cell)     -924.6055

siesta: Stress tensor (static) (eV/Ang**3):
        -0.015610    0.000223    0.001441
         0.000223   -0.008542   -0.000924
         0.001441   -0.000924   -0.000102

siesta: Pressure (static):         12.95312711  kBar

siesta: Stress tensor (total) (eV/Ang**3):
        -0.015940    0.000288    0.001351
         0.000288   -0.008680   -0.000893
         0.001350   -0.000893   -0.000227

siesta: Pressure (total):         13.26962594  kBar

siesta: Temp_ion =     364.785 K

                     ====================================
                        Begin MD step =      5
                     ====================================

outcoor: Atomic coordinates (Ang):                          
    0.02476572   -0.05027844   -0.00692001   1       1  O
    0.74869823    0.68922958    0.05149756   2       2  H
   -0.76522726    0.61909965   -0.01237331   2       3  H
   -0.01636079    0.05199118    3.05199041   1       4  O
    0.66647683   -0.68262919    2.81249074   2       5  H
   -0.77994867   -0.65001237    3.16506043   2       6  H

outcell: Unit cell vectors (Ang):
       10.000004    0.000000    0.000000
        0.000000   10.000004    0.000000
        0.000000    0.000000    8.000003

outcell: Cell vector modules (Ang)   :   10.000004   10.000004    8.000003
outcell: Cell angles (23,13,12) (deg):     90.0000     90.0000     90.0000
outcell: Cell volume (Ang**3)        :    800.0010
Gamma-point calculation with multiply-connected orbital pairs
Folding of H and S implicitly performed
<dSpData1D:S at geom step 5
  <sparsity:sparsity for geom step 5
    nrows_g=12 nrows=12 sparsity=1.0000 nnzs=144, refcount: 7>
  <dData1D:(new from dSpData1D) n=144, refcount: 1>
refcount: 1>
new_DM -- step:     5
Re-using DM from previous geometries...
Number of DMs in history: 1
 DM extrapolation coefficients: 
1   1.00000
New DM after history re-use:
<dSpData2D:SpM extrapolated using coords
  <sparsity:sparsity for geom step 5
    nrows_g=12 nrows=12 sparsity=1.0000 nnzs=144, refcount: 9>
  <dData2D:(temp array for extrapolation) n=144 m=1, refcount: 1>
refcount: 1>
No. of atoms with KB's overlaping orbs in proc 0. Max # of overlaps:       6      11

InitMesh: MESH = 64 x 64 x 50 = 204800
InitMesh: Mesh cutoff (required, used) =   100.000   107.960 Ry
New grid distribution [1]: sub = 2

        iscf     Eharris(eV)        E_KS(eV)     FreeEng(eV)     dDmax    Ef(eV) dHmax(eV)
   scf:    1     -926.083480     -925.325034     -925.325034  0.088765 -2.773727  0.917513
   scf:    2     -925.055295     -925.278775     -925.278775  0.090920 -3.259539  1.369232
   scf:    3     -925.423249     -925.380799     -925.380799  0.051942 -2.967437  0.066817
   scf:    4     -925.380969     -925.380886     -925.380886  0.001128 -2.959029  0.049117
   scf:    5     -925.381073     -925.380984     -925.380984  0.002623 -2.943847  0.009349
   scf:    6     -925.380996     -925.380991     -925.380991  0.000519 -2.942247  0.002533
   scf:    7     -925.380992     -925.380992     -925.380992  0.000188 -2.941841  0.000670
   scf:    8     -925.380992     -925.380992     -925.380992  0.000017 -2.941898  0.000434

SCF Convergence by DM+H criterion
max |DM_out - DM_in|         :     0.0000168797
max |H_out - H_in|      (eV) :     0.0004339104
SCF cycle converged after 8 iterations

Using DM_out to compute the final energy and forces
No. of atoms with KB's overlaping orbs in proc 0. Max # of overlaps:       6      11

siesta: E_KS(eV) =             -925.3810

siesta: Atomic forces (eV/Ang):
     1    0.182474   -2.070433    0.155286
     2    2.169221    1.169519    0.231897
     3   -2.317823    0.993715    0.053705
     4   -0.293971    1.901047   -0.029128
     5    2.496509   -1.241886   -0.910346
     6   -2.217722   -0.741174    0.385316
----------------------------------------
   Tot    0.018689    0.010788   -0.113271
----------------------------------------
   Max    2.496509
   Res    1.389539    sqrt( Sum f_i^2 / 3N )
----------------------------------------
   Max    2.496509    constrained

Stress tensor Voigt[x,y,z,yz,xz,xy] (kbar):      -14.01       -6.05       -0.38       -1.30        1.66        0.40
(Free)E + p*V (eV/cell)     -921.9785
Target enthalpy (eV/cell)     -925.3810

siesta: Stress tensor (static) (eV/Ang**3):
        -0.008500    0.000281    0.000990
         0.000281   -0.003663   -0.000733
         0.000990   -0.000732   -0.000007

siesta: Pressure (static):          6.49940430  kBar

siesta: Stress tensor (total) (eV/Ang**3):
        -0.008744    0.000249    0.001038
         0.000249   -0.003779   -0.000815
         0.001039   -0.000815   -0.000236

siesta: Pressure (total):          6.81417864  kBar

siesta: Temp_ion =    1425.713 K

                     ====================================
                        Begin MD step =      6
                     ====================================

outcoor: Atomic coordinates (Ang):                          
    0.02704835   -0.05669313   -0.00688256   1       1  O
    0.81395181    0.72300099    0.06631201   2       2  H
   -0.83655911    0.64135431   -0.00855924   2       3  H
   -0.01733600    0.05899915    3.05772624   1       4  O
    0.71647306   -0.71791986    2.76788014   2       5  H
   -0.84370165   -0.67989345    3.18725345   2       6  H

outcell: Unit cell vectors (Ang):
       10.000004    0.000000    0.000000
        0.000000   10.000004    0.000000
        0.000000    0.000000    8.000003

outcell: Cell vector modules (Ang)   :   10.000004   10.000004    8.000003
outcell: Cell angles (23,13,12) (deg):     90.0000     90.0000     90.0000
outcell: Cell volume (Ang**3)        :    800.0010
Gamma-point calculation with multiply-connected orbital pairs
Folding of H and S implicitly performed
<dSpData1D:S at geom step 6
  <sparsity:sparsity for geom step 6
    nrows_g=12 nrows=12 sparsity=1.0000 nnzs=144, refcount: 7>
  <dData1D:(new from dSpData1D) n=144, refcount: 1>
refcount: 1>
new_DM -- step:     6
Re-using DM from previous geometries...
Number of DMs in history: 1
 DM extrapolation coefficients: 
1   1.00000
New DM after history re-use:
<dSpData2D:SpM extrapolated using coords
  <sparsity:sparsity for geom step 6
    nrows_g=12 nrows=12 sparsity=1.0000 nnzs=144, refcount: 9>
  <dData2D:(temp array for extrapolation) n=144 m=1, refcount: 1>
refcount: 1>
No. of atoms with KB's overlaping orbs in proc 0. Max # of overlaps:       6      11

InitMesh: MESH = 64 x 64 x 50 = 204800
InitMesh: Mesh cutoff (required, used) =   100.000   107.960 Ry
New grid distribution [1]: sub = 2

        iscf     Eharris(eV)        E_KS(eV)     FreeEng(eV)     dDmax    Ef(eV) dHmax(eV)
   scf:    1     -926.368802     -925.551348     -925.551348  0.130082 -3.419199  1.525336
   scf:    2     -924.393072     -925.304042     -925.304042  0.166437 -4.200442  2.684898
   scf:    3     -925.869915     -925.712104     -925.712104  0.099916 -3.701109  0.109063
   scf:    4     -925.712627     -925.712384     -925.712384  0.001514 -3.683888  0.081612
   scf:    5     -925.712881     -925.712640     -925.712640  0.003073 -3.665142  0.032554
   scf:    6     -925.712746     -925.712698     -925.712698  0.001822 -3.657102  0.004950
   scf:    7     -925.712702     -925.712700     -925.712700  0.000350 -3.656073  0.001250
   scf:    8     -925.712700     -925.712700     -925.712700  0.000049 -3.656048  0.000579

SCF Convergence by DM+H criterion
max |DM_out - DM_in|         :     0.0000491830
max |H_out - H_in|      (eV) :     0.0005792651
SCF cycle converged after 8 iterations

Using DM_out to compute the final energy and forces
No. of atoms with KB's overlaping orbs in proc 0. Max # of overlaps:       6      11

siesta: E_KS(eV) =             -925.7127

siesta: Atomic forces (eV/Ang):
     1    0.012543    0.735784    0.270742
     2   -0.095135   -0.344294    0.067162
     3    0.129786   -0.345452    0.091384
     4   -0.236754   -1.018892   -0.496345
     5    0.217454    0.413602   -0.198461
     6   -0.005721    0.575891    0.009384
----------------------------------------
   Tot    0.022173    0.016640   -0.256133
----------------------------------------
   Max    1.018892
   Res    0.395919    sqrt( Sum f_i^2 / 3N )
----------------------------------------
   Max    1.018892    constrained

Stress tensor Voigt[x,y,z,yz,xz,xy] (kbar):       -2.27        1.80       -0.20       -0.84        0.81        0.20
(Free)E + p*V (eV/cell)     -925.6025
Target enthalpy (eV/cell)     -925.7127

siesta: Stress tensor (static) (eV/Ang**3):
         0.000025    0.000188    0.000225
         0.000188    0.001626   -0.000303
         0.000225   -0.000303    0.000239

siesta: Pressure (static):         -1.00952758  kBar

siesta: Stress tensor (total) (eV/Ang**3):
        -0.001414    0.000125    0.000507
         0.000125    0.001123   -0.000523
         0.000507   -0.000523   -0.000122

siesta: Pressure (total):          0.22072700  kBar

siesta: Temp_ion =    1926.523 K

                     ====================================
                        Begin MD step =      7
                     ====================================

outcoor: Atomic coordinates (Ang):                          
    0.02933169   -0.06264553   -0.00668218   1       1  O
    0.87810047    0.75338052    0.08172394   2       2  H
   -0.90643664    0.66024055   -0.00388320   2       3  H
   -0.01845085    0.06537256    3.06314599   1       4  O
    0.76839772   -0.74915166    2.72150648   2       5  H
   -0.90731816   -0.70418078    3.20946963   2       6  H

outcell: Unit cell vectors (Ang):
       10.000004    0.000000    0.000000
        0.000000   10.000004    0.000000
        0.000000    0.000000    8.000003

outcell: Cell vector modules (Ang)   :   10.000004   10.000004    8.000003
outcell: Cell angles (23,13,12) (deg):     90.0000     90.0000     90.0000
outcell: Cell volume (Ang**3)        :    800.0010
Gamma-point calculation with multiply-connected orbital pairs
Folding of H and S implicitly performed
<dSpData1D:S at geom step 7
  <sparsity:sparsity for geom step 7
    nrows_g=12 nrows=12 sparsity=1.0000 nnzs=144, refcount: 7>
  <dData1D:(new from dSpData1D) n=144, refcount: 1>
refcount: 1>
new_DM -- step:     7
Re-using DM from previous geometries...
Number of DMs in history: 1
 DM extrapolation coefficients: 
1   1.00000
New DM after history re-use:
<dSpData2D:SpM extrapolated using coords
  <sparsity:sparsity for geom step 7
    nrows_g=12 nrows=12 sparsity=1.0000 nnzs=144, refcount: 9>
  <dData2D:(temp array for extrapolation) n=144 m=1, refcount: 1>
refcount: 1>
Note: For starting DM, Qtot, Tr[D*S] =         16.00000000         15.96705797
No. of atoms with KB's overlaping orbs in proc 0. Max # of overlaps:       6      11

InitMesh: MESH = 64 x 64 x 50 = 204800
InitMesh: Mesh cutoff (required, used) =   100.000   107.960 Ry
New grid distribution [1]: sub = 2

        iscf     Eharris(eV)        E_KS(eV)     FreeEng(eV)     dDmax    Ef(eV) dHmax(eV)
   scf:    1     -925.772203     -925.195705     -925.195705  0.122568 -0.957702  1.618493
   scf:    2     -923.253751     -924.728249     -924.728249  0.198700 -4.862781  3.329476
   scf:    3     -925.617954     -925.384323     -925.384323  0.126238 -4.310311  0.118212
   scf:    4     -925.385106     -925.384763     -925.384763  0.001724 -4.290603  0.088883
   scf:    5     -925.385388     -925.385087     -925.385087  0.002787 -4.274507  0.041707
   scf:    6     -925.385261     -925.385183     -925.385183  0.002331 -4.263512  0.003848
   scf:    7     -925.385185     -925.385184     -925.385184  0.000238 -4.262727  0.001094
   scf:    8     -925.385184     -925.385184     -925.385184  0.000041 -4.262629  0.000617

SCF Convergence by DM+H criterion
max |DM_out - DM_in|         :     0.0000405920
max |H_out - H_in|      (eV) :     0.0006174300
SCF cycle converged after 8 iterations

Using DM_out to compute the final energy and forces
No. of atoms with KB's overlaping orbs in proc 0. Max # of overlaps:       6      11

siesta: E_KS(eV) =             -925.3852

siesta: Atomic forces (eV/Ang):
     1   -0.092211    2.343319    0.370971
     2   -1.545848   -1.238183   -0.065287
     3    1.699302   -1.101152    0.108287
     4   -0.185062   -2.726960   -0.873771
     5   -1.278500    1.414190    0.361588
     6    1.428380    1.328292   -0.272988
----------------------------------------
   Tot    0.026061    0.019506   -0.371199
----------------------------------------
   Max    2.726960
   Res    1.281375    sqrt( Sum f_i^2 / 3N )
----------------------------------------
   Max    2.726960    constrained

Stress tensor Voigt[x,y,z,yz,xz,xy] (kbar):        7.03        7.10        0.16       -0.27       -0.09        0.12
(Free)E + p*V (eV/cell)     -927.7651
Target enthalpy (eV/cell)     -925.3852

siesta: Stress tensor (static) (eV/Ang**3):
         0.006468    0.000118   -0.000466
         0.000117    0.005036    0.000103
        -0.000466    0.000103    0.000534

siesta: Pressure (static):         -6.42871723  kBar

siesta: Stress tensor (total) (eV/Ang**3):
         0.004388    0.000076   -0.000056
         0.000076    0.004434   -0.000167
        -0.000056   -0.000167    0.000103

siesta: Pressure (total):         -4.76631177  kBar

siesta: Temp_ion =    1464.696 K

                     ====================================
                        Begin MD step =      8
                     ====================================

outcoor: Atomic coordinates (Ang):                          
    0.03155031   -0.06716358   -0.00625935   1       1  O
    0.92722332    0.77180952    0.09645000   2       2  H
   -0.95979934    0.66853166    0.00180840   2       3  H
   -0.01967258    0.07007902    3.06801799   1       4  O
    0.80789977   -0.76674817    2.67877410   2       5  H
   -0.95703313   -0.71568140    3.22898840   2       6  H

outcell: Unit cell vectors (Ang):
       10.000004    0.000000    0.000000
        0.000000   10.000004    0.000000
        0.000000    0.000000    8.000003

outcell: Cell vector modules (Ang)   :   10.000004   10.000004    8.000003
outcell: Cell angles (23,13,12) (deg):     90.0000     90.0000     90.0000
outcell: Cell volume (Ang**3)        :    800.0010
Gamma-point calculation with multiply-connected orbital pairs
Folding of H and S implicitly performed
<dSpData1D:S at geom step 8
  <sparsity:sparsity for geom step 8
    nrows_g=12 nrows=12 sparsity=1.0000 nnzs=144, refcount: 7>
  <dData1D:(new from dSpData1D) n=144, refcount: 1>
refcount: 1>
new_DM -- step:     8
Re-using DM from previous geometries...
Number of DMs in history: 1
 DM extrapolation coefficients: 
1   1.00000
New DM after history re-use:
<dSpData2D:SpM extrapolated using coords
  <sparsity:sparsity for geom step 8
    nrows_g=12 nrows=12 sparsity=1.0000 nnzs=144, refcount: 9>
  <dData2D:(temp array for extrapolation) n=144 m=1, refcount: 1>
refcount: 1>
Note: For starting DM, Qtot, Tr[D*S] =         16.00000000         15.96675365
No. of atoms with KB's overlaping orbs in proc 0. Max # of overlaps:       6      11

InitMesh: MESH = 64 x 64 x 50 = 204800
InitMesh: Mesh cutoff (required, used) =   100.000   107.960 Ry
New grid distribution [1]: sub = 2

        iscf     Eharris(eV)        E_KS(eV)     FreeEng(eV)     dDmax    Ef(eV) dHmax(eV)
   scf:    1     -925.160136     -924.761244     -924.761244  0.083999 -1.550154  1.221843
   scf:    2     -923.276142     -924.380607     -924.380607  0.164897 -2.129367  2.825108
   scf:    3     -925.033193     -924.872102     -924.872102  0.109339 -1.726760  0.095262
   scf:    4     -924.872659     -924.872405     -924.872405  0.001179 -1.714639  0.070092
   scf:    5     -924.872849     -924.872637     -924.872637  0.002275 -1.703818  0.029006
   scf:    6     -924.872724     -924.872685     -924.872685  0.001555 -1.697616  0.002205
   scf:    7     -924.872686     -924.872686     -924.872686  0.000118 -1.697244  0.000958
   scf:    8     -924.872686     -924.872686     -924.872686  0.000026 -1.697170  0.000534

SCF Convergence by DM+H criterion
max |DM_out - DM_in|         :     0.0000263472
max |H_out - H_in|      (eV) :     0.0005343301
SCF cycle converged after 8 iterations

Using DM_out to compute the final energy and forces
No. of atoms with KB's overlaping orbs in proc 0. Max # of overlaps:       6      11

siesta: E_KS(eV) =             -924.8727

siesta: Atomic forces (eV/Ang):
     1   -0.139653    3.024667    0.435771
     2   -2.294848   -1.636881   -0.150800
     3    2.508067   -1.412987    0.112502
     4   -0.162861   -3.453380   -1.112665
     5   -2.062722    1.857995    0.708565
     6    2.180634    1.640418   -0.447120
----------------------------------------
   Tot    0.028617    0.019832   -0.453748
----------------------------------------
   Max    3.453380
   Res    1.742787    sqrt( Sum f_i^2 / 3N )
----------------------------------------
   Max    3.453380    constrained

Stress tensor Voigt[x,y,z,yz,xz,xy] (kbar):       14.00       10.08        0.65        0.29       -0.95        0.11
(Free)E + p*V (eV/cell)     -928.9879
Target enthalpy (eV/cell)     -924.8727

siesta: Stress tensor (static) (eV/Ang**3):
         0.010360    0.000090   -0.000957
         0.000089    0.006631    0.000387
        -0.000956    0.000388    0.000808

siesta: Pressure (static):         -9.50553427  kBar

siesta: Stress tensor (total) (eV/Ang**3):
         0.008739    0.000070   -0.000595
         0.000069    0.006289    0.000181
        -0.000595    0.000182    0.000404

siesta: Pressure (total):         -8.24164167  kBar

siesta: Temp_ion =     702.117 K

                     ====================================
                        Begin MD step =      9
                     ====================================

outcoor: Atomic coordinates (Ang):                          
    0.03367494   -0.06984133   -0.00557621   1       1  O
    0.95420862    0.77452276    0.10966970   2       2  H
   -0.98896911    0.66329084    0.00854887   2       3  H
   -0.02098682    0.07268638    3.07219859   1       4  O
    0.82752442   -0.76652093    2.64300082   2       5  H
   -0.98569869   -0.71146361    3.24414927   2       6  H

outcell: Unit cell vectors (Ang):
       10.000004    0.000000    0.000000
        0.000000   10.000004    0.000000
        0.000000    0.000000    8.000003

outcell: Cell vector modules (Ang)   :   10.000004   10.000004    8.000003
outcell: Cell angles (23,13,12) (deg):     90.0000     90.0000     90.0000
outcell: Cell volume (Ang**3)        :    800.0010
Gamma-point calculation with multiply-connected orbital pairs
Folding of H and S implicitly performed
<dSpData1D:S at geom step 9
  <sparsity:sparsity for geom step 9
    nrows_g=12 nrows=12 sparsity=1.0000 nnzs=144, refcount: 7>
  <dData1D:(new from dSpData1D) n=144, refcount: 1>
refcount: 1>
new_DM -- step:     9
Re-using DM from previous geometries...
Number of DMs in history: 1
 DM extrapolation coefficients: 
1   1.00000
New DM after history re-use:
<dSpData2D:SpM extrapolated using coords
  <sparsity:sparsity for geom step 9
    nrows_g=12 nrows=12 sparsity=1.0000 nnzs=144, refcount: 9>
  <dData2D:(temp array for extrapolation) n=144 m=1, refcount: 1>
refcount: 1>
Note: For starting DM, Qtot, Tr[D*S] =         16.00000000         15.98323423
No. of atoms with KB's overlaping orbs in proc 0. Max # of overlaps:       6      11

InitMesh: MESH = 64 x 64 x 50 = 204800
InitMesh: Mesh cutoff (required, used) =   100.000   107.960 Ry
New grid distribution [1]: sub = 2

        iscf     Eharris(eV)        E_KS(eV)     FreeEng(eV)     dDmax    Ef(eV) dHmax(eV)
   scf:    1     -924.777190     -924.547398     -924.547398  0.028647 -1.846256  0.523120
   scf:    2     -924.240778     -924.466759     -924.466759  0.073397 -2.097010  1.254115
   scf:    3     -924.598361     -924.567560     -924.567560  0.050530 -1.918603  0.048058
   scf:    4     -924.567733     -924.567652     -924.567652  0.000966 -1.914663  0.034060
   scf:    5     -924.567796     -924.567730     -924.567730  0.001910 -1.908517  0.005583
   scf:    6     -924.567734     -924.567732     -924.567732  0.000339 -1.907630  0.001419
   scf:    7     -924.567733     -924.567733     -924.567733  0.000044 -1.907533  0.000690

SCF Convergence by DM+H criterion
max |DM_out - DM_in|         :     0.0000444842
max |H_out - H_in|      (eV) :     0.0006897520
SCF cycle converged after 7 iterations

Using DM_out to compute the final energy and forces
No. of atoms with KB's overlaping orbs in proc 0. Max # of overlaps:       6      11

siesta: E_KS(eV) =             -924.5677

siesta: Atomic forces (eV/Ang):
     1   -0.153023    3.153647    0.465378
     2   -2.602237   -1.731569   -0.198159
     3    2.841020   -1.463163    0.111894
     4   -0.138842   -3.585321   -1.240606
     5   -2.408477    1.968015    0.895035
     6    2.492734    1.677815   -0.544472
----------------------------------------
   Tot    0.031175    0.019424   -0.510930
----------------------------------------
   Max    3.585321
   Res    1.891979    sqrt( Sum f_i^2 / 3N )
----------------------------------------
   Max    3.585321    constrained

Stress tensor Voigt[x,y,z,yz,xz,xy] (kbar):       18.33       10.99        1.17        0.73       -1.66        0.10
(Free)E + p*V (eV/cell)     -929.6412
Target enthalpy (eV/cell)     -924.5677

siesta: Stress tensor (static) (eV/Ang**3):
         0.012178    0.000067   -0.001248
         0.000067    0.006939    0.000545
        -0.001248    0.000545    0.001043

siesta: Pressure (static):        -10.76659435  kBar

siesta: Stress tensor (total) (eV/Ang**3):
         0.011438    0.000064   -0.001034
         0.000063    0.006858    0.000458
        -0.001034    0.000458    0.000729

siesta: Pressure (total):        -10.16073425  kBar

siesta: Temp_ion =     241.321 K

                     ====================================
                        Begin MD step =     10
                     ====================================

outcoor: Atomic coordinates (Ang):                          
    0.03569820   -0.07060966   -0.00461601   1       1  O
    0.95622190    0.76068587    0.12093898   2       2  H
   -0.99087668    0.64409822    0.01632858   2       3  H
   -0.02237886    0.07312486    3.07561438   1       4  O
    0.82405982   -0.74749810    2.61593244   2       5  H
   -0.99043075   -0.69123938    3.25404360   2       6  H

outcell: Unit cell vectors (Ang):
       10.000004    0.000000    0.000000
        0.000000   10.000004    0.000000
        0.000000    0.000000    8.000003

outcell: Cell vector modules (Ang)   :   10.000004   10.000004    8.000003
outcell: Cell angles (23,13,12) (deg):     90.0000     90.0000     90.0000
outcell: Cell volume (Ang**3)        :    800.0010
Gamma-point calculation with multiply-connected orbital pairs
Folding of H and S implicitly performed
<dSpData1D:S at geom step 10
  <sparsity:sparsity for geom step 10
    nrows_g=12 nrows=12 sparsity=1.0000 nnzs=144, refcount: 7>
  <dData1D:(new from dSpData1D) n=144, refcount: 1>
refcount: 1>
new_DM -- step:    10
Re-using DM from previous geometries...
Number of DMs in history: 1
 DM extrapolation coefficients: 
1   1.00000
New DM after history re-use:
<dSpData2D:SpM extrapolated using coords
  <sparsity:sparsity for geom step 10
    nrows_g=12 nrows=12 sparsity=1.0000 nnzs=144, refcount: 9>
  <dData2D:(temp array for extrapolation) n=144 m=1, refcount: 1>
refcount: 1>
No. of atoms with KB's overlaping orbs in proc 0. Max # of overlaps:       6      11

InitMesh: MESH = 64 x 64 x 50 = 204800
InitMesh: Mesh cutoff (required, used) =   100.000   107.960 Ry
New grid distribution [1]: sub = 2

        iscf     Eharris(eV)        E_KS(eV)     FreeEng(eV)     dDmax    Ef(eV) dHmax(eV)
   scf:    1     -924.509953     -924.625847     -924.625847  0.037079 -1.834765  0.324449
   scf:    2     -924.530307     -924.600859     -924.600859  0.045605 -1.692717  0.726637
   scf:    3     -924.641639     -924.632330     -924.632330  0.031266 -1.795257  0.020671
   scf:    4     -924.632419     -924.632375     -924.632375  0.001007 -1.797251  0.014255
   scf:    5     -924.632444     -924.632414     -924.632414  0.002160 -1.802173  0.002213
   scf:    6     -924.632415     -924.632414     -924.632414  0.000069 -1.802550  0.001014
   scf:    7     -924.632415     -924.632415     -924.632415  0.000058 -1.802812  0.000396

SCF Convergence by DM+H criterion
max |DM_out - DM_in|         :     0.0000576057
max |H_out - H_in|      (eV) :     0.0003957144
SCF cycle converged after 7 iterations

Using DM_out to compute the final energy and forces
No. of atoms with KB's overlaping orbs in proc 0. Max # of overlaps:       6      11

siesta: E_KS(eV) =             -924.6324

siesta: Atomic forces (eV/Ang):
     1   -0.143929    2.899544    0.457885
     2   -2.600292   -1.609225   -0.211367
     3    2.840794   -1.333715    0.111920
     4   -0.079783   -3.310892   -1.283085
     5   -2.469451    1.858983    0.957530
     6    2.486631    1.514213   -0.584042
----------------------------------------
   Tot    0.033970    0.018908   -0.551159
----------------------------------------
   Max    3.310892
   Res    1.822663    sqrt( Sum f_i^2 / 3N )
----------------------------------------
   Max    3.310892    constrained

Stress tensor Voigt[x,y,z,yz,xz,xy] (kbar):       19.44        9.96        1.62        0.98       -2.07        0.05
(Free)E + p*V (eV/cell)     -929.7965
Target enthalpy (eV/cell)     -924.6324

siesta: Stress tensor (static) (eV/Ang**3):
         0.012249    0.000016   -0.001351
         0.000016    0.006285    0.000580
        -0.001351    0.000580    0.001221

siesta: Pressure (static):        -10.55050763  kBar

siesta: Stress tensor (total) (eV/Ang**3):
         0.012132    0.000030   -0.001292
         0.000030    0.006219    0.000611
        -0.001291    0.000611    0.001014

siesta: Pressure (total):        -10.34227079  kBar

siesta: Temp_ion =     336.219 K

siesta: Program's energy decomposition (eV):
siesta: Ebs     =      -179.900949
siesta: Eions   =      1621.026762
siesta: Ena     =       348.767493
siesta: Ekin    =       672.185893
siesta: Enl     =      -108.220899
siesta: Eso     =         0.000000
siesta: Edftu   =         0.000000
siesta: DEna    =        -3.281264
siesta: DUscf   =         2.885560
siesta: DUext   =         0.000000
siesta: Ex      =      -191.351874
siesta: Ec      =       -24.590562
siesta: Exc     =      -215.942436
siesta: EbV     =         0.000000
siesta: eta*DQ  =         0.000000
siesta: Emadel  =         0.000000
siesta: Emeta   =         0.000000
siesta: Emolmec =         0.000000
siesta: Ekinion =         0.217298
siesta: Eharris =      -924.415116
siesta: Etot    =      -924.415116
siesta: FreeEng =      -924.415116

siesta: Final energy (eV):
siesta:  Band Struct. =    -179.900949
siesta:       Kinetic =     672.185893
siesta:       Hartree =     894.067282
siesta:         Edftu =       0.000000
siesta:       Eso     =       0.000000
siesta:    Ext. field =       0.000000
siesta:         Exch. =    -191.351874
siesta:         Corr. =     -24.590562
siesta:     Bulk bias =       0.000000
siesta:   Exch.-corr. =    -215.942436
siesta:  Ion-electron =   -2357.344899
siesta:       Ion-ion =      82.401746
siesta:       Ekinion =       0.217298
siesta: D3 dispersion =       0.000000
siesta:         Total =    -924.415116
siesta:         Fermi =      -1.802812

siesta: Atomic forces (eV/Ang):
siesta:      1   -0.143929    2.899544    0.457885
siesta:      2   -2.600292   -1.609225   -0.211367
siesta:      3    2.840794   -1.333715    0.111920
siesta:      4   -0.079783   -3.310892   -1.283085
siesta:      5   -2.469451    1.858983    0.957530
siesta:      6    2.486631    1.514213   -0.584042
siesta: ----------------------------------------
siesta:    Tot    0.033970    0.018908   -0.551159

siesta: Stress tensor (static) (eV/Ang**3):
siesta:     0.012249    0.000016   -0.001351
siesta:     0.000016    0.006285    0.000580
siesta:    -0.001351    0.000580    0.001221

siesta: Cell volume =        800.000957 Ang**3

siesta: Pressure (static):
siesta:                Solid            Molecule  Units
siesta:          -0.00007172          0.00000679  Ry/Bohr**3
siesta:          -0.00658511          0.00062383  eV/Ang**3
siesta:         -10.55050763          0.99948372  kBar
(Free)E+ p_basis*V_orbitals  =        -923.982401
(Free)Eharris+ p_basis*V_orbitals  =        -923.982401

siesta: Electric dipole (a.u.)  =   -0.103335    0.010455   -0.000000
siesta: Electric dipole (Debye) =   -0.262652    0.026574   -0.000000

cite: Please see "nose.bib" for an exhaustive BiBTeX file.
cite: Please clearly indicate Siesta version in published work: 5.0.0-beta1-20-g7fc69e9ee-dirty
cite: This calculation has made use of the following articles
cite: which are encouraged to be cited in a published work.
        Primary SIESTA paper
          DOI: www.doi.org/10.1088/0953-8984/14/11/302


timer: Elapsed wall time (sec) =       2.147
timer: CPU execution times (sec):

Routine            Calls   Time/call    Tot.time        %
siesta                 1       2.147       2.147   100.00
Setup                  1       0.058       0.058     2.71
bands                  1       0.000       0.000     0.00
KSV_init               1       0.000       0.000     0.00
IterGeom              10       0.209       2.088    97.27
geom_init             10       0.038       0.378    17.62
state_init            10       0.000       0.005     0.23
hsparse               10       0.000       0.000     0.02
overlap               10       0.000       0.002     0.11
Setup_H0              10       0.021       0.209     9.73
naefs                 20       0.000       0.001     0.03
MolMec                20       0.000       0.000     0.00
kinefsm               20       0.000       0.002     0.11
nlefsm                20       0.001       0.015     0.68
DHSCF_Init            10       0.019       0.193     8.98
DHSCF1                10       0.003       0.026     1.19
INITMESH              10       0.000       0.000     0.00
DHSCF2                10       0.017       0.167     7.78
REMESH                10       0.001       0.006     0.27
REORD                294       0.000       0.046     2.14
PHION                 10       0.005       0.052     2.43
COMM_BSC             458       0.000       0.061     2.85
POISON               117       0.007       0.768    35.79
fft                  234       0.002       0.559    26.05
setup_H               97       0.016       1.530    71.28
DHSCF                107       0.017       1.832    85.33
DHSCF3               107       0.016       1.665    77.56
rhoofd               107       0.001       0.066     3.06
XC                   107       0.005       0.587    27.35
GXC-CellXC           107       0.005       0.520    24.20
gridxc@cellXC        107       0.005       0.519    24.18
vmat                 107       0.001       0.059     2.74
IterSCF               87       0.016       1.379    64.24
compute_dm            87       0.000       0.005     0.22
diagon                87       0.000       0.004     0.21
r-eigvec              87       0.000       0.003     0.16
r-buildHS             87       0.000       0.000     0.00
rdiag                 87       0.000       0.003     0.15
rdiag1                87       0.000       0.000     0.02
rdiag2                87       0.000       0.000     0.02
rdiag3                87       0.000       0.002     0.08
rdiag4                87       0.000       0.000     0.01
r-buildD              87       0.000       0.000     0.02
MIXER                 77       0.000       0.001     0.03
PostSCF               10       0.033       0.326    15.21
DHSCF4                10       0.017       0.167     7.77
dfscf                 10       0.012       0.116     5.41
overfsm               10       0.000       0.000     0.02
writeHSX              10       0.000       0.001     0.04
state_analysis        10       0.000       0.001     0.04
siesta_move           10       0.000       0.002     0.09
Analysis               1       0.000       0.000     0.01
optical                1       0.000       0.000     0.00
  

>> End of run:  11-DEC-2023  14:25:57
Job completed
