Siesta Version  : 5.0.0-alpha-123-gfb8fd7d02
Architecture    : ----
Compiler version: GNU-11.4.0
Compiler flags  : -fallow-argument-mismatch;-O3 -march=native
PP flags        : ----
Libraries       : ----
Parallelisations: none
GEMM3M support
NetCDF support
NetCDF-4 support
Lua support

Runtime information:
* Directory : /home/fnpedron/Siesta/siesta-dev/Tests/09.MolecularDynamics/work/npr_rip
* Running in serial mode.
>> Start of run:  28-SEP-2023  15:37:37

                           *********************** 
                           *  WELCOME TO SIESTA  * 
                           *********************** 

reinit: Reading from standard input
reinit: Dumping input in INPUT_TMP.51282
************************** Dump of input data file ****************************
%include ../../basejob.fdf
SystemLabel          npr_rip
MD.TypeOfRun         NoseParrinelloRahman
MD.TargetPressure   10.0 GPa
MD.RemoveIntramolecularPressure T
************************** End of input data file *****************************

reinit: -----------------------------------------------------------------------
reinit: System Name: Water molecules MD
reinit: -----------------------------------------------------------------------
reinit: System Label: npr_rip
reinit: -----------------------------------------------------------------------

initatom: Reading input for the pseudopotentials and atomic orbitals ----------
Species number:   1 Atomic number:    8 Label: O
Species number:   2 Atomic number:    1 Label: H


---- Processing specs for species: O
Ground state valence configuration:   2s02  2p04
Reading pseudopotential information in formatted form from:
  /home/fnpedron/Siesta/siesta-dev/Tests/Pseudos/O.psf

---- Processing specs for species: H
Ground state valence configuration:   1s01
Reading pseudopotential information in formatted form from:
  /home/fnpedron/Siesta/siesta-dev/Tests/Pseudos/H.psf

---- Pseudopotential check for O 

Pseudized shells:
2s( 2.00) rc: 1.14
2p( 4.00) rc: 1.14
3d( 0.00) rc: 1.14
4f( 0.00) rc: 1.14
Valence configuration for ps generation: (assumed as above)

---- Pseudopotential check for H 

Pseudized shells:
1s( 1.00) rc: 1.25
2p( 0.00) rc: 1.25
3d( 0.00) rc: 1.25
4f( 0.00) rc: 1.25
Valence configuration for ps generation: (assumed as above)
For O, standard SIESTA heuristics set lmxkb to 2
 (one more than the basis l, including polarization orbitals).
Use PS.lmax or PS.KBprojectors blocks to override.
For H, standard SIESTA heuristics set lmxkb to 1
 (one more than the basis l, including polarization orbitals).
Use PS.lmax or PS.KBprojectors blocks to override.

<basis_specs>
===============================================================================
O                    Z=   8    Mass=  15.999        Charge= 0.17977+309
Lmxo=1 Lmxkb= 2    BasisType=split      Semic=F
L=0  Nsemic=0  Cnfigmx=2
          i=1  nzeta=1  polorb=0  (2s)
            splnorm:   0.15000    
               vcte:    40.000    
               rinn:  -0.90000    
               qcoe:    0.0000    
               qyuk:    0.0000    
               qwid:   0.10000E-01
                rcs:    0.0000    
            lambdas:    1.0000    
L=1  Nsemic=0  Cnfigmx=2
          i=1  nzeta=1  polorb=0  (2p)
            splnorm:   0.15000    
               vcte:    40.000    
               rinn:  -0.90000    
               qcoe:    0.0000    
               qyuk:    0.0000    
               qwid:   0.10000E-01
                rcs:    0.0000    
            lambdas:    1.0000    
-------------------------------------------------------------------------------
L=0  Nkbl=1  erefs: 0.17977+309
L=1  Nkbl=1  erefs: 0.17977+309
L=2  Nkbl=1  erefs: 0.17977+309
===============================================================================
</basis_specs>

Using PAO.SplitTailNorm
atom: Called for O                     (Z =   8)
Maximum radius (at nrval) set to   50.00000 8518

read_vps: Pseudopotential generation method:
read_vps: ATM3      Troullier-Martins                       
Valence charge in pseudo generation:    6.00000

xc_check: Exchange-correlation functional:
xc_check: Ceperley-Alder
V l=0 = -2*Zval/r beyond r=  1.1366
V l=1 = -2*Zval/r beyond r=  1.1332
V l=2 = -2*Zval/r beyond r=  1.1298
All V_l potentials equal beyond r=  1.1355
This should be close to max(r_c) in ps generation
All pots = -2*Zval/r beyond r=  1.1366
Using small-core scheme (local charge) for Vlocal

VLOCAL_FROM_CHLOCAL: 99.0% of the norm of Vloc inside     33.667 Ry
VLOCAL_FROM_CHLOCAL: 99.9% of the norm of Vloc inside     76.727 Ry
atom: Maximum radius for chlocal:    1.37241
atom: Maximum radius for r*vlocal+2*Zval:    1.25469

KBgen: Kleinman-Bylander projectors: 
GHOST: No ghost state for L =  0
   l= 0   rc=  1.293209   el= -1.742414   Ekb=  9.076872   kbcos=  0.325320
GHOST: No ghost state for L =  1
   l= 1   rc=  1.284119   el= -0.676589   Ekb= -8.194485   kbcos= -0.396010
GHOST: No ghost state for L =  2
   l= 2   rc=  1.433152   el=  0.013307   Ekb= -2.071665   kbcos= -0.003690

KBgen: Total number of Kleinman-Bylander projectors:   9
atom: -------------------------------------------------------------------------

atom: SANKEY-TYPE ORBITALS:

SPLIT: Orbitals with angular momentum L= 0

SPLIT: Basis orbitals for state 2s

SPLIT: PAO cut-off radius determined from an
SPLIT: energy shift=  0.010000 Ry
Split based on tail norm

   izeta = 1
                 lambda =    1.000000
                     rc =    3.560943
                 energy =   -1.731321
                kinetic =    1.587329
    potential(screened) =   -3.318651
       potential(ionic) =  -11.260325

SPLIT: Orbitals with angular momentum L= 1

SPLIT: Basis orbitals for state 2p

SPLIT: PAO cut-off radius determined from an
SPLIT: energy shift=  0.010000 Ry
Split based on tail norm

   izeta = 1
                 lambda =    1.000000
                     rc =    4.290924
                 energy =   -0.665565
                kinetic =    4.934810
    potential(screened) =   -5.600376
       potential(ionic) =  -13.346429
atom: Total number of Sankey-type orbitals:  4

atm_pop: Valence configuration (for local Pseudopot. screening):
 2s( 2.00)                                                            
 2p( 4.00)                                                            
Vna: chval, zval:    6.00000   6.00000

Vna:  Cut-off radius for the neutral-atom potential:   4.290924

atom: _________________________________________________________________________

<basis_specs>
===============================================================================
H                    Z=   1    Mass=  1.0080        Charge= 0.17977+309
Lmxo=0 Lmxkb= 1    BasisType=split      Semic=F
L=0  Nsemic=0  Cnfigmx=1
          i=1  nzeta=1  polorb=0  (1s)
            splnorm:   0.15000    
               vcte:    40.000    
               rinn:  -0.90000    
               qcoe:    0.0000    
               qyuk:    0.0000    
               qwid:   0.10000E-01
                rcs:    0.0000    
            lambdas:    1.0000    
-------------------------------------------------------------------------------
L=0  Nkbl=1  erefs: 0.17977+309
L=1  Nkbl=1  erefs: 0.17977+309
===============================================================================
</basis_specs>

Using PAO.SplitTailNorm
atom: Called for H                     (Z =   1)
Maximum radius (at nrval) set to   50.00000 8518

read_vps: Pseudopotential generation method:
read_vps: ATM3      Troullier-Martins                       
Valence charge in pseudo generation:    1.00000

xc_check: Exchange-correlation functional:
xc_check: Ceperley-Alder
V l=0 = -2*Zval/r beyond r=  1.2384
V l=1 = -2*Zval/r beyond r=  1.2321
All V_l potentials equal beyond r=  1.2371
This should be close to max(r_c) in ps generation
All pots = -2*Zval/r beyond r=  1.2384
Using small-core scheme (local charge) for Vlocal

VLOCAL_FROM_CHLOCAL: 99.0% of the norm of Vloc inside     28.363 Ry
VLOCAL_FROM_CHLOCAL: 99.9% of the norm of Vloc inside     64.639 Ry
atom: Maximum radius for chlocal:    1.44620
atom: Maximum radius for r*vlocal+2*Zval:    1.31026

KBgen: Kleinman-Bylander projectors: 
GHOST: No ghost state for L =  0
   l= 0   rc=  1.364142   el= -0.467325   Ekb= -2.009475   kbcos= -0.336680
GHOST: No ghost state for L =  1
   l= 1   rc=  1.430269   el=  0.007562   Ekb= -0.503817   kbcos= -0.022554

KBgen: Total number of Kleinman-Bylander projectors:   4
atom: -------------------------------------------------------------------------

atom: SANKEY-TYPE ORBITALS:

SPLIT: Orbitals with angular momentum L= 0

SPLIT: Basis orbitals for state 1s

SPLIT: PAO cut-off radius determined from an
SPLIT: energy shift=  0.010000 Ry
Split based on tail norm

   izeta = 1
                 lambda =    1.000000
                     rc =    5.285354
                 energy =   -0.456120
                kinetic =    0.900445
    potential(screened) =   -1.356565
       potential(ionic) =   -1.890080
atom: Total number of Sankey-type orbitals:  1

atm_pop: Valence configuration (for local Pseudopot. screening):
 1s( 1.00)                                                            
Vna: chval, zval:    1.00000   1.00000

Vna:  Cut-off radius for the neutral-atom potential:   5.285354

atom: _________________________________________________________________________

prinput: Basis input 

PAO.BasisType split     

%block ChemicalSpeciesLabel
    1    8 O                       # Species index, atomic number, species label
    2    1 H                       # Species index, atomic number, species label
%endblock ChemicalSpeciesLabel

%block PAO.Basis                 # Define Basis set
# WARNING: This information might be incomplete!
O                     2                    # Species label, number of l-shells
 n=2   0   1                         # n, l, Nzeta 
   3.561   
   1.000   
 n=2   1   1                         # n, l, Nzeta 
   4.291   
   1.000   
H                     1                    # Species label, number of l-shells
 n=1   0   1                         # n, l, Nzeta 
   5.285   
   1.000   
%endblock PAO.Basis

prinput: ----------------------------------------------------------------------

Dumping basis to NetCDF file O.ion.nc
Dumping basis to NetCDF file H.ion.nc
coor:   Atomic-coordinates input format  =     Cartesian coordinates
coor:                                          (in Angstroms)

siesta: WARNING: XV file not found

siesta: Atomic coordinates (Bohr) and species
siesta:      0.00000   0.00000   0.00000  1        1
siesta:      1.43052   1.10738   0.00000  2        2
siesta:     -1.43052   1.10738   0.00000  2        3
siesta:      0.00000   0.00000   5.66918  1        4
siesta:      1.43052  -1.10738   5.66918  2        5
siesta:     -1.43052  -1.10738   5.66918  2        6

siesta: System type = chain     

initatomlists: Number of atoms, orbitals, and projectors:      6    12    34

siesta: ******************** Simulation parameters ****************************
siesta:
siesta: The following are some of the parameters of the simulation.
siesta: A complete list of the parameters used, including default values,
siesta: can be found in file out.fdf
siesta:
redata: Spin configuration                          = none
redata: Number of spin components                   = 1
redata: Time-Reversal Symmetry                      = T
redata: Spin spiral                                 = F
redata: Long output                                 =   F
redata: Number of Atomic Species                    =        2
redata: Charge density info will appear in .RHO file
redata: Write Mulliken Pop.                         = NO
redata: Matel table size (NRTAB)                    =     1024
redata: Mesh Cutoff                                 =   100.0000 Ry
redata: Net charge of the system                    =     0.0000 |e|
redata: Min. number of SCF Iter                     =        0
redata: Max. number of SCF Iter                     =     1000
redata: SCF convergence failure will abort job
redata: SCF mix quantity                            = Hamiltonian
redata: Mix DM or H after convergence               =   F
redata: Recompute H after scf cycle                 =   F
redata: Mix DM in first SCF step                    =   T
redata: Write Pulay info on disk                    =   F
redata: New DM Occupancy tolerance                  = 0.000000000001
redata: No kicks to SCF
redata: DM Mixing Weight for Kicks                  =     0.5000
redata: Require Harris convergence for SCF          =   F
redata: Harris energy tolerance for SCF             =     0.000100 eV
redata: Require DM convergence for SCF              =   T
redata: DM tolerance for SCF                        =     0.000100
redata: Require EDM convergence for SCF             =   F
redata: EDM tolerance for SCF                       =     0.001000 eV
redata: Require H convergence for SCF               =   T
redata: Hamiltonian tolerance for SCF               =     0.001000 eV
redata: Require (free) Energy convergence for SCF   =   F
redata: (free) Energy tolerance for SCF             =     0.000100 eV
redata: Using DFT-D3 dispersion                     =   F
redata: Using Saved Data (generic)                  =   F
redata: Use continuation files for DM               =   F
redata: Neglect nonoverlap interactions             =   F
redata: Method of Calculation                       = Diagonalization
redata: Electronic Temperature                      =   299.9863 K
redata: Fix the spin of the system                  =   F
redata: Max. number of TDED Iter                    =        1
redata: Number of TDED substeps                     =        3
redata: Dynamics option                             = Nose-Parrinello-Rahman MD run
redata: Initial MD time step                        =        1
redata:   Final MD time step                        =       10
redata: Length of MD time step                      =     1.0000 fs
redata: Initial Temperature of MD run               =     0.0000 K
redata: Perform a MD quench                         =   F
redata: Nose mass                                   =  1360.5693 eV*fs**2
redata: Parrinello-Rahman mass                      =  1360.5693 eV*fs**2
redata: Target Temperature                          =     0.0000 Kelvin
redata: Target Pressure                             =     0.0624 eV/Ang**3
mix.SCF: Pulay mixing                            = Pulay
mix.SCF:    Variant                              = stable
mix.SCF:    History steps                        = 2
mix.SCF:    Linear mixing weight                 =     0.250000
mix.SCF:    Mixing weight                        =     0.250000
mix.SCF:    SVD condition                        = 0.1000E-07
redata: Save all siesta data in one NC              =   F
redata: ***********************************************************************

%block SCF.Mixers
  Pulay
%endblock SCF.Mixers

%block SCF.Mixer.Pulay
  # Mixing method
  method pulay
  variant stable

  # Mixing options
  weight 0.2500
  weight.linear 0.2500
  history 2
%endblock SCF.Mixer.Pulay

Size of DM history Fstack: 1
Total number of electrons:    16.000000
Total ionic charge:    16.000000

siesta: k-grid: Number of k-points = 1
siesta: k-point is Gamma-only

diag: Algorithm                                     = D&C
diag: Used triangular part                          = Lower
diag: Absolute tolerance                            =  0.100E-15
diag: Orthogonalization factor                      =  0.100E-05
diag: Memory factor                                 =  1.0000


ts: **************************************************************
ts: Save H and S matrices                           =    F
ts: Save DM and EDM matrices                        =    F
ts: Only save the overlap matrix S                  =    F
ts: **************************************************************

************************ Begin: TS CHECKS AND WARNINGS ************************
************************ End: TS CHECKS AND WARNINGS **************************


                     ====================================
                        Begin MD step =      1
                     ====================================

outcoor: Atomic coordinates (Ang):                          
    0.00000000    0.00000000    0.00000000   1       1  O
    0.75700000    0.58600000    0.00000000   2       2  H
   -0.75700000    0.58600000    0.00000000   2       3  H
    0.00000000    0.00000000    3.00000000   1       4  O
    0.75700000   -0.58600000    3.00000000   2       5  H
   -0.75700000   -0.58600000    3.00000000   2       6  H

outcell: Unit cell vectors (Ang):
       10.000000    0.000000    0.000000
        0.000000   10.000000    0.000000
        0.000000    0.000000    8.000000

outcell: Cell vector modules (Ang)   :   10.000000   10.000000    8.000000
outcell: Cell angles (23,13,12) (deg):     90.0000     90.0000     90.0000
outcell: Cell volume (Ang**3)        :    800.0000
Gamma-point calculation with multiply-connected orbital pairs
Folding of H and S implicitly performed
<dSpData1D:S at geom step 1
  <sparsity:sparsity for geom step 1
    nrows_g=12 nrows=12 sparsity=1.0000 nnzs=144, refcount: 7>
  <dData1D:(new from dSpData1D) n=144, refcount: 1>
refcount: 1>
new_DM -- step:     1
Initializing Density Matrix...
DM filled with atomic data:
<dSpData2D:DM initialized from atoms
  <sparsity:sparsity for geom step 1
    nrows_g=12 nrows=12 sparsity=1.0000 nnzs=144, refcount: 8>
  <dData2D:DM n=144 m=1, refcount: 1>
refcount: 1>
No. of atoms with KB's overlaping orbs in proc 0. Max # of overlaps:       6      11

InitMesh: MESH = 64 x 64 x 50 = 204800
InitMesh: Mesh cutoff (required, used) =   100.000   107.960 Ry
New grid distribution [1]: sub = 2

stepf: Fermi-Dirac step function

siesta: Program's energy decomposition (eV):
siesta: Ebs     =      -150.860226
siesta: Eions   =      1621.026762
siesta: Ena     =       348.311589
siesta: Ekin    =       762.029177
siesta: Enl     =      -142.322504
siesta: Eso     =         0.000000
siesta: Edftu   =         0.000000
siesta: DEna    =       -43.394775
siesta: DUscf   =         8.145612
siesta: DUext   =         0.000000
siesta: Ex      =      -208.215598
siesta: Ec      =       -25.484600
siesta: Exc     =      -233.700198
siesta: EbV     =         0.000000
siesta: eta*DQ  =         0.000000
siesta: Emadel  =         0.000000
siesta: Emeta   =         0.000000
siesta: Emolmec =         0.000000
siesta: Ekinion =         0.000000
siesta: Eharris =      -912.757638
siesta: Etot    =      -921.957860
siesta: FreeEng =      -921.957860

        iscf     Eharris(eV)        E_KS(eV)     FreeEng(eV)     dDmax    Ef(eV) dHmax(eV)
   scf:    1     -912.757638     -921.957860     -921.957860  0.733417 -3.359648  7.697499
timer: Routine,Calls,Time,% = IterSCF        1       0.015  12.27
   scf:    2     -925.019859     -923.619429     -923.619429  0.139222 -2.405659  4.176372
   scf:    3     -924.515320     -924.243189     -924.243189  0.153954 -1.356709  0.720183
   scf:    4     -924.257341     -924.250596     -924.250596  0.006996 -1.425281  0.533465
   scf:    5     -924.260059     -924.255895     -924.255895  0.015005 -1.528642  0.167600
   scf:    6     -924.256792     -924.256358     -924.256358  0.004055 -1.533824  0.094733
   scf:    7     -924.256616     -924.256507     -924.256507  0.002845 -1.530644  0.020744
   scf:    8     -924.256536     -924.256523     -924.256523  0.000334 -1.526977  0.014933
   scf:    9     -924.256536     -924.256531     -924.256531  0.000297 -1.523110  0.009254
   scf:   10     -924.256533     -924.256532     -924.256532  0.000152 -1.522419  0.005779
   scf:   11     -924.256533     -924.256533     -924.256533  0.000228 -1.521732  0.001906
   scf:   12     -924.256533     -924.256533     -924.256533  0.000028 -1.521803  0.001144
   scf:   13     -924.256533     -924.256533     -924.256533  0.000017 -1.521890  0.000403

SCF Convergence by DM+H criterion
max |DM_out - DM_in|         :     0.0000168156
max |H_out - H_in|      (eV) :     0.0004032171
SCF cycle converged after 13 iterations

Using DM_out to compute the final energy and forces
No. of atoms with KB's overlaping orbs in proc 0. Max # of overlaps:       6      11

siesta: E_KS(eV) =             -924.2565

siesta: E_KS - E_eggbox =      -924.2565

siesta: Atomic forces (eV/Ang):
     1   -0.000000   -7.298057   -0.083748
     2    4.939654    3.545499    0.122935
     3   -4.939654    3.545499    0.122935
     4   -0.000000    7.275470    0.989242
     5    4.938269   -3.544015   -0.118804
     6   -4.938269   -3.544015   -0.118804
----------------------------------------
   Tot   -0.000000   -0.019620    0.913758
----------------------------------------
   Max    7.298057
   Res    3.764400    sqrt( Sum f_i^2 / 3N )
----------------------------------------
   Max    7.298057    constrained

Stress tensor Voigt[x,y,z,yz,xz,xy] (kbar):      -29.91      -16.97        0.60       -0.58       -0.00       -0.00
(Free)E + p*V (eV/cell)     -916.5540

Inter molecular stress Voigt[x,y,z,yz,xz,xy] (kbar):      -13.79       -0.85       16.73       -0.58       -0.00       -0.00
(Free)E + p_inter_molec * V  (eV/cell)     -924.6035
Target enthalpy (eV/cell)     -874.3245

siesta: Stress tensor (static) (eV/Ang**3):
        -0.018671   -0.000000    0.000000
        -0.000000   -0.010591   -0.000359
        -0.000000   -0.000359    0.000377

siesta: Pressure (static):         15.42593083  kBar

siesta: Stress tensor (total) (eV/Ang**3):
        -0.018671   -0.000000    0.000000
        -0.000000   -0.010591   -0.000359
        -0.000000   -0.000359    0.000377

siesta: Pressure (total):         15.42593083  kBar

siesta: Stress tensor (nonmol) (eV/Ang**3):
        -0.008609   -0.000000    0.000000
        -0.000000   -0.000529   -0.000359
        -0.000000   -0.000359    0.010439

siesta: Pressure (nonmol):         -0.69487398  kBar

siesta: Stress tensor (nonmol+kin) (eV/Ang**3):
        -0.008609   -0.000000    0.000000
        -0.000000   -0.000529   -0.000359
        -0.000000   -0.000359    0.010439

siesta: Pressure (nonmol+kin):         -0.69487398  kBar

siesta: Temp_ion =       0.000 K

                     ====================================
                        Begin MD step =      2
                     ====================================

outcoor: Atomic coordinates (Ang):                          
   -0.00000000   -0.00220040   -0.00002525   1       1  O
    0.78057192    0.60290724    0.00058861   2       2  H
   -0.78057192    0.60290724    0.00058861   2       3  H
   -0.00000000    0.00219636    2.99973594   1       4  O
    0.78056529   -0.60289737    2.99886886   2       5  H
   -0.78056529   -0.60289737    2.99886886   2       6  H

outcell: Unit cell vectors (Ang):
        9.999114    0.000000   -0.000000
        0.000000    9.998981    0.000006
        0.000000    0.000007    7.998501

outcell: Cell vector modules (Ang)   :    9.999114    9.998981    7.998501
outcell: Cell angles (23,13,12) (deg):     89.9999     90.0000     90.0000
outcell: Cell volume (Ang**3)        :    799.6977
Gamma-point calculation with multiply-connected orbital pairs
Folding of H and S implicitly performed
<dSpData1D:S at geom step 2
  <sparsity:sparsity for geom step 2
    nrows_g=12 nrows=12 sparsity=1.0000 nnzs=144, refcount: 7>
  <dData1D:(new from dSpData1D) n=144, refcount: 1>
refcount: 1>
new_DM -- step:     2
Re-using DM from previous geometries...
Number of DMs in history: 1
 DM extrapolation coefficients: 
1   1.00000
New DM after history re-use:
<dSpData2D:SpM extrapolated using coords
  <sparsity:sparsity for geom step 2
    nrows_g=12 nrows=12 sparsity=1.0000 nnzs=144, refcount: 9>
  <dData2D:(temp array for extrapolation) n=144 m=1, refcount: 1>
refcount: 1>
No. of atoms with KB's overlaping orbs in proc 0. Max # of overlaps:       6      11

InitMesh: MESH = 64 x 64 x 50 = 204800
InitMesh: Mesh cutoff (required, used) =   100.000   108.000 Ry
New grid distribution [1]: sub = 2

        iscf     Eharris(eV)        E_KS(eV)     FreeEng(eV)     dDmax    Ef(eV) dHmax(eV)
   scf:    1     -925.371018     -924.859307     -924.859307  0.062152 -1.771060  0.620228
   scf:    2     -924.792023     -924.852169     -924.852169  0.048822 -2.132467  0.747701
   scf:    3     -924.893618     -924.880650     -924.880650  0.026460 -1.932034  0.036140
   scf:    4     -924.880682     -924.880666     -924.880666  0.000548 -1.928064  0.026561
   scf:    5     -924.880704     -924.880686     -924.880686  0.001389 -1.919383  0.003288
   scf:    6     -924.880687     -924.880687     -924.880687  0.000125 -1.919153  0.001479
   scf:    7     -924.880687     -924.880687     -924.880687  0.000068 -1.919078  0.000299

SCF Convergence by DM+H criterion
max |DM_out - DM_in|         :     0.0000680667
max |H_out - H_in|      (eV) :     0.0002994399
SCF cycle converged after 7 iterations

Using DM_out to compute the final energy and forces
No. of atoms with KB's overlaping orbs in proc 0. Max # of overlaps:       6      11

siesta: E_KS(eV) =             -924.8807

siesta: Atomic forces (eV/Ang):
     1    0.000000   -5.318905   -0.084472
     2    3.384321    2.571562    0.120763
     3   -3.384321    2.571562    0.120763
     4    0.000000    5.301287    0.997554
     5    3.383562   -2.570599   -0.117744
     6   -3.383562   -2.570599   -0.117744
----------------------------------------
   Tot    0.000000   -0.015692    0.919120
----------------------------------------
   Max    5.318905
   Res    2.684312    sqrt( Sum f_i^2 / 3N )
----------------------------------------
   Max    5.318905    constrained

Stress tensor Voigt[x,y,z,yz,xz,xy] (kbar):      -21.13      -12.77        0.55       -0.59        0.00       -0.00
(Free)E + p*V (eV/cell)     -919.3324

Inter molecular stress Voigt[x,y,z,yz,xz,xy] (kbar):       -9.31       -0.95       12.37       -0.59        0.00       -0.00
(Free)E + p_inter_molec * V  (eV/cell)     -925.2315
Target enthalpy (eV/cell)     -874.9675

siesta: Stress tensor (static) (eV/Ang**3):
        -0.013186   -0.000000    0.000000
        -0.000000   -0.007973   -0.000366
         0.000000   -0.000366    0.000344

siesta: Pressure (static):         11.11593286  kBar

siesta: Stress tensor (total) (eV/Ang**3):
        -0.013186   -0.000000    0.000000
        -0.000000   -0.007973   -0.000366
         0.000000   -0.000366    0.000344

siesta: Pressure (total):         11.11593286  kBar

siesta: Stress tensor (nonmol) (eV/Ang**3):
        -0.005809   -0.000000    0.000000
        -0.000000   -0.000596   -0.000366
         0.000000   -0.000366    0.007721

siesta: Pressure (nonmol):         -0.70275367  kBar

siesta: Stress tensor (nonmol+kin) (eV/Ang**3):
        -0.005809   -0.000000    0.000000
        -0.000000   -0.000596   -0.000366
         0.000000   -0.000366    0.007721

siesta: Pressure (nonmol+kin):         -0.70275367  kBar

siesta: Temp_ion =     827.669 K

                     ====================================
                        Begin MD step =      3
                     ====================================

outcoor: Atomic coordinates (Ang):                          
    0.00000000   -0.00760660   -0.00010141   1       1  O
    0.83644955    0.64435572    0.00233287   2       2  H
   -0.83644955    0.64435572    0.00233287   2       3  H
    0.00000000    0.00759090    2.99953159   1       4  O
    0.83642904   -0.64432377    2.99606941   2       5  H
   -0.83642904   -0.64432377    2.99606941   2       6  H

outcell: Unit cell vectors (Ang):
        9.997309    0.000000   -0.000000
        0.000000    9.996952    0.000018
       -0.000000    0.000023    7.995557

outcell: Cell vector modules (Ang)   :    9.997309    9.996952    7.995557
outcell: Cell angles (23,13,12) (deg):     89.9997     90.0000     90.0000
outcell: Cell volume (Ang**3)        :    799.0970
Gamma-point calculation with multiply-connected orbital pairs
Folding of H and S implicitly performed
<dSpData1D:S at geom step 3
  <sparsity:sparsity for geom step 3
    nrows_g=12 nrows=12 sparsity=1.0000 nnzs=144, refcount: 7>
  <dData1D:(new from dSpData1D) n=144, refcount: 1>
refcount: 1>
new_DM -- step:     3
Re-using DM from previous geometries...
Number of DMs in history: 1
 DM extrapolation coefficients: 
1   1.00000
New DM after history re-use:
<dSpData2D:SpM extrapolated using coords
  <sparsity:sparsity for geom step 3
    nrows_g=12 nrows=12 sparsity=1.0000 nnzs=144, refcount: 9>
  <dData2D:(temp array for extrapolation) n=144 m=1, refcount: 1>
refcount: 1>
Note: For starting DM, Qtot, Tr[D*S] =         16.00000000         15.96545370
No. of atoms with KB's overlaping orbs in proc 0. Max # of overlaps:       6      11

InitMesh: MESH = 64 x 64 x 50 = 204800
InitMesh: Mesh cutoff (required, used) =   100.000   108.080 Ry
New grid distribution [1]: sub = 2

        iscf     Eharris(eV)        E_KS(eV)     FreeEng(eV)     dDmax    Ef(eV) dHmax(eV)
   scf:    1     -926.306438     -925.441181     -925.441181  0.162630 -2.452016  1.693241
   scf:    2     -924.558642     -925.285130     -925.285130  0.156036 -3.407513  2.472746
   scf:    3     -925.755414     -925.615364     -925.615364  0.086841 -2.837691  0.099593
   scf:    4     -925.615676     -925.615533     -925.615533  0.001359 -2.821421  0.074463
   scf:    5     -925.615829     -925.615685     -925.615685  0.002550 -2.805482  0.032941
   scf:    6     -925.615752     -925.615711     -925.615711  0.001731 -2.798163  0.006516
   scf:    7     -925.615717     -925.615715     -925.615715  0.000433 -2.797141  0.002020
   scf:    8     -925.615715     -925.615715     -925.615715  0.000078 -2.797190  0.000756

SCF Convergence by DM+H criterion
max |DM_out - DM_in|         :     0.0000775862
max |H_out - H_in|      (eV) :     0.0007557965
SCF cycle converged after 8 iterations

Using DM_out to compute the final energy and forces
No. of atoms with KB's overlaping orbs in proc 0. Max # of overlaps:       6      11

siesta: E_KS(eV) =             -925.6157

siesta: Atomic forces (eV/Ang):
     1   -0.000000   -1.763943   -0.073868
     2    0.615934    0.826365    0.109361
     3   -0.615934    0.826365    0.109361
     4   -0.000000    1.756532    0.998531
     5    0.615883   -0.826095   -0.106576
     6   -0.615883   -0.826095   -0.106576
----------------------------------------
   Tot   -0.000000   -0.006871    0.930232
----------------------------------------
   Max    1.763943
   Res    0.799098    sqrt( Sum f_i^2 / 3N )
----------------------------------------
   Max    1.763943    constrained

Stress tensor Voigt[x,y,z,yz,xz,xy] (kbar):       -5.41       -5.38        0.41       -0.61        0.00       -0.00
(Free)E + p*V (eV/cell)     -923.8896

Inter molecular stress Voigt[x,y,z,yz,xz,xy] (kbar):       -1.95       -1.92        3.87       -0.61        0.00       -0.00
(Free)E + p_inter_molec * V  (eV/cell)     -925.6160
Target enthalpy (eV/cell)     -875.7400

siesta: Stress tensor (static) (eV/Ang**3):
        -0.002550   -0.000000    0.000000
        -0.000000   -0.002851   -0.000357
         0.000000   -0.000357    0.000259

siesta: Pressure (static):          2.74601350  kBar

siesta: Stress tensor (total) (eV/Ang**3):
        -0.003379   -0.000000    0.000000
        -0.000000   -0.003359   -0.000380
         0.000000   -0.000379    0.000258

siesta: Pressure (total):          3.46075001  kBar

siesta: Stress tensor (nonmol) (eV/Ang**3):
        -0.000390   -0.000000    0.000000
        -0.000000   -0.000691   -0.000357
         0.000000   -0.000357    0.002420

siesta: Pressure (nonmol):         -0.71537722  kBar

siesta: Stress tensor (nonmol+kin) (eV/Ang**3):
        -0.001219   -0.000000    0.000000
        -0.000000   -0.001198   -0.000380
         0.000000   -0.000379    0.002418

siesta: Pressure (nonmol+kin):         -0.00064071  kBar

siesta: Temp_ion =    1885.015 K

                     ====================================
                        Begin MD step =      4
                     ====================================

outcoor: Atomic coordinates (Ang):                          
    0.00000000   -0.01406578   -0.00022194   1       1  O
    0.89804014    0.69357270    0.00512005   2       2  H
   -0.89804014    0.69357270    0.00512005   2       3  H
    0.00000000    0.01403730    2.99942402   1       4  O
    0.89800529   -0.69351281    2.99175044   2       5  H
   -0.89800529   -0.69351281    2.99175044   2       6  H

outcell: Unit cell vectors (Ang):
        9.994509    0.000000   -0.000000
        0.000000    9.993922    0.000038
       -0.000000    0.000047    7.991272

outcell: Cell vector modules (Ang)   :    9.994509    9.993922    7.991272
outcell: Cell angles (23,13,12) (deg):     89.9994     90.0000     90.0000
outcell: Cell volume (Ang**3)        :    798.2029
Gamma-point calculation with multiply-connected orbital pairs
Folding of H and S implicitly performed
<dSpData1D:S at geom step 4
  <sparsity:sparsity for geom step 4
    nrows_g=12 nrows=12 sparsity=1.0000 nnzs=144, refcount: 7>
  <dData1D:(new from dSpData1D) n=144, refcount: 1>
refcount: 1>
new_DM -- step:     4
Re-using DM from previous geometries...
Number of DMs in history: 1
 DM extrapolation coefficients: 
1   1.00000
New DM after history re-use:
<dSpData2D:SpM extrapolated using coords
  <sparsity:sparsity for geom step 4
    nrows_g=12 nrows=12 sparsity=1.0000 nnzs=144, refcount: 9>
  <dData2D:(temp array for extrapolation) n=144 m=1, refcount: 1>
refcount: 1>
Note: For starting DM, Qtot, Tr[D*S] =         16.00000000         15.94611351
No. of atoms with KB's overlaping orbs in proc 0. Max # of overlaps:       6      11

InitMesh: MESH = 64 x 64 x 50 = 204800
InitMesh: Mesh cutoff (required, used) =   100.000   108.196 Ry
New grid distribution [1]: sub = 2

        iscf     Eharris(eV)        E_KS(eV)     FreeEng(eV)     dDmax    Ef(eV) dHmax(eV)
   scf:    1     -925.769079     -925.212521     -925.212521  0.197438 -3.311855  2.208900
   scf:    2     -922.590897     -924.628850     -924.628850  0.249754 -4.510376  3.981458
   scf:    3     -925.890514     -925.537366     -925.537366  0.148347 -3.739841  0.132915
   scf:    4     -925.538328     -925.537968     -925.537968  0.002466 -3.711310  0.102224
   scf:    5     -925.538569     -925.538275     -925.538275  0.002667 -3.697004  0.059805
   scf:    6     -925.538583     -925.538442     -925.538442  0.003566 -3.680934  0.004494
   scf:    7     -925.538446     -925.538445     -925.538445  0.000306 -3.680237  0.001531
   scf:    8     -925.538445     -925.538445     -925.538445  0.000076 -3.680111  0.000509

SCF Convergence by DM+H criterion
max |DM_out - DM_in|         :     0.0000758022
max |H_out - H_in|      (eV) :     0.0005089324
SCF cycle converged after 8 iterations

Using DM_out to compute the final energy and forces
No. of atoms with KB's overlaping orbs in proc 0. Max # of overlaps:       6      11

siesta: E_KS(eV) =             -925.5384

siesta: Atomic forces (eV/Ang):
     1   -0.000000    0.888296   -0.045901
     2   -1.341180   -0.473901    0.090134
     3    1.341180   -0.473901    0.090134
     4   -0.000000   -0.886729    0.970978
     5   -1.341114    0.473809   -0.084784
     6    1.341114    0.473809   -0.084784
----------------------------------------
   Tot   -0.000000    0.001383    0.935776
----------------------------------------
   Max    1.341180
   Res    0.768973    sqrt( Sum f_i^2 / 3N )
----------------------------------------
   Max    1.341180    constrained

Stress tensor Voigt[x,y,z,yz,xz,xy] (kbar):        6.81        0.54        0.26       -0.61       -0.00        0.00
(Free)E + p*V (eV/cell)     -926.8022

Inter molecular stress Voigt[x,y,z,yz,xz,xy] (kbar):        3.36       -2.91       -3.19       -0.61       -0.00        0.00
(Free)E + p_inter_molec * V  (eV/cell)     -925.0843
Target enthalpy (eV/cell)     -875.7185

siesta: Stress tensor (static) (eV/Ang**3):
         0.006065    0.000000    0.000000
         0.000000    0.001567   -0.000314
        -0.000000   -0.000314    0.000169

siesta: Pressure (static):         -4.16589907  kBar

siesta: Stress tensor (total) (eV/Ang**3):
         0.004248    0.000000    0.000000
         0.000000    0.000338   -0.000383
        -0.000000   -0.000383    0.000164

siesta: Pressure (total):         -2.53659117  kBar

siesta: Stress tensor (nonmol) (eV/Ang**3):
         0.003912    0.000000    0.000000
         0.000000   -0.000586   -0.000314
        -0.000000   -0.000314   -0.001983

siesta: Pressure (nonmol):         -0.71775925  kBar

siesta: Stress tensor (nonmol+kin) (eV/Ang**3):
         0.002096    0.000000    0.000000
         0.000000   -0.001814   -0.000383
        -0.000000   -0.000383   -0.001989

siesta: Pressure (nonmol+kin):          0.91154866  kBar

siesta: Temp_ion =    1810.952 K

                     ====================================
                        Begin MD step =      5
                     ====================================

outcoor: Atomic coordinates (Ang):                          
    0.00000000   -0.01996660   -0.00036965   1       1  O
    0.94650627    0.73802158    0.00875848   2       2  H
   -0.94650627    0.73802158    0.00875848   2       3  H
    0.00000000    0.01992963    2.99942012   1       4  O
    0.94645774   -0.73793143    2.98615577   2       5  H
   -0.94645774   -0.73793143    2.98615577   2       6  H

outcell: Unit cell vectors (Ang):
        9.990626    0.000000   -0.000000
        0.000000    9.989879    0.000064
       -0.000000    0.000080    7.985719

outcell: Cell vector modules (Ang)   :    9.990626    9.989879    7.985719
outcell: Cell angles (23,13,12) (deg):     89.9991     90.0000     90.0000
outcell: Cell volume (Ang**3)        :    797.0158
Gamma-point calculation with multiply-connected orbital pairs
Folding of H and S implicitly performed
<dSpData1D:S at geom step 5
  <sparsity:sparsity for geom step 5
    nrows_g=12 nrows=12 sparsity=1.0000 nnzs=144, refcount: 7>
  <dData1D:(new from dSpData1D) n=144, refcount: 1>
refcount: 1>
new_DM -- step:     5
Re-using DM from previous geometries...
Number of DMs in history: 1
 DM extrapolation coefficients: 
1   1.00000
New DM after history re-use:
<dSpData2D:SpM extrapolated using coords
  <sparsity:sparsity for geom step 5
    nrows_g=12 nrows=12 sparsity=1.0000 nnzs=144, refcount: 9>
  <dData2D:(temp array for extrapolation) n=144 m=1, refcount: 1>
refcount: 1>
Note: For starting DM, Qtot, Tr[D*S] =         16.00000000         15.94448915
No. of atoms with KB's overlaping orbs in proc 0. Max # of overlaps:       6      11

InitMesh: MESH = 64 x 64 x 50 = 204800
InitMesh: Mesh cutoff (required, used) =   100.000   108.346 Ry
New grid distribution [1]: sub = 2

        iscf     Eharris(eV)        E_KS(eV)     FreeEng(eV)     dDmax    Ef(eV) dHmax(eV)
   scf:    1     -925.002336     -924.707916     -924.707916  0.169426 -1.053427  2.048523
   scf:    2     -921.267361     -923.853941     -923.853941  0.267331 -5.133720  4.374784
   scf:    3     -925.408854     -925.002615     -925.002615  0.169648 -1.378772  0.126042
   scf:    4     -925.003803     -925.003375     -925.003375  0.002924 -1.353692  0.097442
   scf:    5     -925.004011     -925.003701     -925.003701  0.002449 -1.343098  0.057792
   scf:    6     -925.004020     -925.003878     -925.003878  0.003523 -1.328893  0.002195
   scf:    7     -925.003878     -925.003878     -925.003878  0.000111 -1.328614  0.000826
   scf:    8     -925.003878     -925.003878     -925.003878  0.000027 -1.328491  0.000698

SCF Convergence by DM+H criterion
max |DM_out - DM_in|         :     0.0000274925
max |H_out - H_in|      (eV) :     0.0006975535
SCF cycle converged after 8 iterations

Using DM_out to compute the final energy and forces
No. of atoms with KB's overlaping orbs in proc 0. Max # of overlaps:       6      11

siesta: E_KS(eV) =             -925.0039

siesta: Atomic forces (eV/Ang):
     1   -0.000000    2.422655   -0.009688
     2   -2.326208   -1.227716    0.069482
     3    2.326208   -1.227716    0.069482
     4   -0.000000   -2.415469    0.919053
     5   -2.326303    1.227608   -0.059488
     6    2.326303    1.227608   -0.059488
----------------------------------------
   Tot   -0.000000    0.006969    0.929354
----------------------------------------
   Max    2.422655
   Res    1.495172    sqrt( Sum f_i^2 / 3N )
----------------------------------------
   Max    2.422655    constrained

Stress tensor Voigt[x,y,z,yz,xz,xy] (kbar):       15.18        5.24        0.14       -0.56        0.00       -0.00
(Free)E + p*V (eV/cell)     -928.4117

Inter molecular stress Voigt[x,y,z,yz,xz,xy] (kbar):        7.46       -2.48       -7.58       -0.56        0.00       -0.00
(Free)E + p_inter_molec * V  (eV/cell)     -924.5726
Target enthalpy (eV/cell)     -875.2581

siesta: Stress tensor (static) (eV/Ang**3):
         0.011077    0.000000    0.000000
        -0.000000    0.004588   -0.000250
        -0.000000   -0.000249    0.000097

siesta: Pressure (static):         -8.41778347  kBar

siesta: Stress tensor (total) (eV/Ang**3):
         0.009473   -0.000000    0.000000
        -0.000000    0.003269   -0.000352
         0.000000   -0.000352    0.000085

siesta: Pressure (total):         -6.85049617  kBar

siesta: Stress tensor (nonmol) (eV/Ang**3):
         0.006260    0.000000    0.000000
        -0.000000   -0.000228   -0.000250
        -0.000000   -0.000249   -0.004720

siesta: Pressure (nonmol):         -0.70039617  kBar

siesta: Stress tensor (nonmol+kin) (eV/Ang**3):
         0.004656   -0.000000    0.000000
        -0.000000   -0.001548   -0.000352
         0.000000   -0.000352   -0.004732

siesta: Pressure (nonmol+kin):          0.86689113  kBar

siesta: Temp_ion =    1023.266 K

                     ====================================
                        Begin MD step =      6
                     ====================================

outcoor: Atomic coordinates (Ang):                          
    0.00000000   -0.02437966   -0.00052242   1       1  O
    0.97241808    0.77045684    0.01304199   2       2  H
   -0.97241808    0.77045684    0.01304199   2       3  H
   -0.00000000    0.02434150    2.99949622   1       4  O
    0.97235505   -0.77033471    2.97954859   2       5  H
   -0.97235505   -0.77033471    2.97954859   2       6  H

outcell: Unit cell vectors (Ang):
        9.985589    0.000000   -0.000000
        0.000000    9.984792    0.000096
       -0.000000    0.000120    7.978934

outcell: Cell vector modules (Ang)   :    9.985589    9.984792    7.978934
outcell: Cell angles (23,13,12) (deg):     89.9986     90.0000     90.0000
outcell: Cell volume (Ang**3)        :    795.5318
Gamma-point calculation with multiply-connected orbital pairs
Folding of H and S implicitly performed
<dSpData1D:S at geom step 6
  <sparsity:sparsity for geom step 6
    nrows_g=12 nrows=12 sparsity=1.0000 nnzs=144, refcount: 7>
  <dData1D:(new from dSpData1D) n=144, refcount: 1>
refcount: 1>
new_DM -- step:     6
Re-using DM from previous geometries...
Number of DMs in history: 1
 DM extrapolation coefficients: 
1   1.00000
New DM after history re-use:
<dSpData2D:SpM extrapolated using coords
  <sparsity:sparsity for geom step 6
    nrows_g=12 nrows=12 sparsity=1.0000 nnzs=144, refcount: 9>
  <dData2D:(temp array for extrapolation) n=144 m=1, refcount: 1>
refcount: 1>
Note: For starting DM, Qtot, Tr[D*S] =         16.00000000         15.96018026
No. of atoms with KB's overlaping orbs in proc 0. Max # of overlaps:       6      11

InitMesh: MESH = 64 x 64 x 48 = 196608
InitMesh: Mesh cutoff (required, used) =   100.000   100.022 Ry
New grid distribution [1]: sub = 2

        iscf     Eharris(eV)        E_KS(eV)     FreeEng(eV)     dDmax    Ef(eV) dHmax(eV)
   scf:    1     -924.680444     -924.434908     -924.434908  0.109251 -1.660185  1.383878
   scf:    2     -922.393272     -923.900392     -923.900392  0.197181 -2.326241  3.296236
   scf:    3     -924.786808     -924.571116     -924.571116  0.132179 -1.857657  0.089109
   scf:    4     -924.571683     -924.571444     -924.571444  0.001511 -1.843452  0.066343
   scf:    5     -924.571814     -924.571635     -924.571635  0.001949 -1.834384  0.033930
   scf:    6     -924.571756     -924.571702     -924.571702  0.002006 -1.825798  0.001296
   scf:    7     -924.571702     -924.571702     -924.571702  0.000077 -1.825488  0.000648

SCF Convergence by DM+H criterion
max |DM_out - DM_in|         :     0.0000767481
max |H_out - H_in|      (eV) :     0.0006481565
SCF cycle converged after 7 iterations

Using DM_out to compute the final energy and forces
No. of atoms with KB's overlaping orbs in proc 0. Max # of overlaps:       6      11

siesta: E_KS(eV) =             -924.5717

siesta: Atomic forces (eV/Ang):
     1   -0.000000    3.221188    0.031509
     2   -2.708946   -1.621302    0.051173
     3    2.708946   -1.621302    0.051173
     4   -0.000000   -3.219867   -0.383139
     5   -2.708779    1.621151   -0.040303
     6    2.708779    1.621151   -0.040303
----------------------------------------
   Tot   -0.000000    0.001018   -0.329890
----------------------------------------
   Max    3.221188
   Res    1.837346    sqrt( Sum f_i^2 / 3N )
----------------------------------------
   Max    3.221188    constrained

Stress tensor Voigt[x,y,z,yz,xz,xy] (kbar):       20.06        8.84       -0.48       -0.45        0.00       -0.00
(Free)E + p*V (eV/cell)     -929.2743

Inter molecular stress Voigt[x,y,z,yz,xz,xy] (kbar):        8.93       -2.30      -11.62       -0.45        0.00       -0.00
(Free)E + p_inter_molec * V  (eV/cell)     -923.7466
Target enthalpy (eV/cell)     -874.9185

siesta: Stress tensor (static) (eV/Ang**3):
         0.013262   -0.000000    0.000000
        -0.000000    0.006414   -0.000178
         0.000000   -0.000177   -0.000282

siesta: Pressure (static):        -10.35795106  kBar

siesta: Stress tensor (total) (eV/Ang**3):
         0.012521   -0.000000    0.000000
        -0.000000    0.005515   -0.000284
         0.000000   -0.000283   -0.000301

siesta: Pressure (total):         -9.47091628  kBar

siesta: Stress tensor (nonmol) (eV/Ang**3):
         0.006314   -0.000000    0.000000
        -0.000000   -0.000534   -0.000178
         0.000000   -0.000177   -0.007230

siesta: Pressure (nonmol):          0.77474169  kBar

siesta: Stress tensor (nonmol+kin) (eV/Ang**3):
         0.005572   -0.000000    0.000000
        -0.000000   -0.001434   -0.000284
         0.000000   -0.000283   -0.007250

siesta: Pressure (nonmol+kin):          1.66177648  kBar

siesta: Temp_ion =     304.451 K

                     ====================================
                        Begin MD step =      7
                     ====================================

outcoor: Atomic coordinates (Ang):                          
    0.00000000   -0.02682898   -0.00065535   1       1  O
    0.97221354    0.78715635    0.01778912   2       2  H
   -0.97221354    0.78715635    0.01778912   2       3  H
   -0.00000000    0.02679261    2.99887601   1       4  O
    0.97213771   -0.78700169    2.97212969   2       5  H
   -0.97213771   -0.78700169    2.97212969   2       6  H

outcell: Unit cell vectors (Ang):
        9.979366    0.000000   -0.000000
        0.000000    9.978639    0.000133
       -0.000000    0.000167    7.970947

outcell: Cell vector modules (Ang)   :    9.979366    9.978639    7.970947
outcell: Cell angles (23,13,12) (deg):     89.9980     90.0000     90.0000
outcell: Cell volume (Ang**3)        :    793.7508
Gamma-point calculation with multiply-connected orbital pairs
Folding of H and S implicitly performed
<dSpData1D:S at geom step 7
  <sparsity:sparsity for geom step 7
    nrows_g=12 nrows=12 sparsity=1.0000 nnzs=144, refcount: 7>
  <dData1D:(new from dSpData1D) n=144, refcount: 1>
refcount: 1>
new_DM -- step:     7
Re-using DM from previous geometries...
Number of DMs in history: 1
 DM extrapolation coefficients: 
1   1.00000
New DM after history re-use:
<dSpData2D:SpM extrapolated using coords
  <sparsity:sparsity for geom step 7
    nrows_g=12 nrows=12 sparsity=1.0000 nnzs=144, refcount: 9>
  <dData2D:(temp array for extrapolation) n=144 m=1, refcount: 1>
refcount: 1>
No. of atoms with KB's overlaping orbs in proc 0. Max # of overlaps:       6      11

InitMesh: MESH = 64 x 64 x 48 = 196608
InitMesh: Mesh cutoff (required, used) =   100.000   100.222 Ry
New grid distribution [1]: sub = 2

        iscf     Eharris(eV)        E_KS(eV)     FreeEng(eV)     dDmax    Ef(eV) dHmax(eV)
   scf:    1     -924.554797     -924.427992     -924.427992  0.040023 -1.933399  0.460266
   scf:    2     -924.176879     -924.360946     -924.360946  0.068186 -2.154916  1.138139
   scf:    3     -924.467667     -924.443071     -924.443071  0.047144 -1.995190  0.031129
   scf:    4     -924.443155     -924.443119     -924.443119  0.000546 -1.991519  0.022020
   scf:    5     -924.443182     -924.443153     -924.443153  0.001121 -1.985835  0.004370
   scf:    6     -924.443156     -924.443155     -924.443155  0.000273 -1.984624  0.000494
   scf:    7     -924.443155     -924.443155     -924.443155  0.000029 -1.984494  0.000354

SCF Convergence by DM+H criterion
max |DM_out - DM_in|         :     0.0000285475
max |H_out - H_in|      (eV) :     0.0003543128
SCF cycle converged after 7 iterations

Using DM_out to compute the final energy and forces
No. of atoms with KB's overlaping orbs in proc 0. Max # of overlaps:       6      11

siesta: E_KS(eV) =             -924.4432

siesta: Atomic forces (eV/Ang):
     1   -0.000000    3.548220    0.063690
     2   -2.732905   -1.783914    0.037824
     3    2.732905   -1.783914    0.037824
     4   -0.000000   -3.547163   -0.524485
     5   -2.732912    1.784269   -0.022459
     6    2.732912    1.784269   -0.022459
----------------------------------------
   Tot   -0.000000    0.001768   -0.430065
----------------------------------------
   Max    3.548220
   Res    1.944541    sqrt( Sum f_i^2 / 3N )
----------------------------------------
   Max    3.548220    constrained

Stress tensor Voigt[x,y,z,yz,xz,xy] (kbar):       21.33       11.03       -0.47       -0.31       -0.00        0.00
(Free)E + p*V (eV/cell)     -929.7095

Inter molecular stress Voigt[x,y,z,yz,xz,xy] (kbar):        9.55       -0.74      -12.24       -0.31       -0.00        0.00
(Free)E + p_inter_molec * V  (eV/cell)     -923.8774
Target enthalpy (eV/cell)     -874.9011

siesta: Stress tensor (static) (eV/Ang**3):
         0.013405    0.000000   -0.000000
         0.000000    0.007263   -0.000118
        -0.000000   -0.000118   -0.000269

siesta: Pressure (static):        -10.89444703  kBar

siesta: Stress tensor (total) (eV/Ang**3):
         0.013311    0.000000   -0.000000
         0.000000    0.006886   -0.000195
        -0.000000   -0.000194   -0.000292

siesta: Pressure (total):        -10.63000158  kBar

siesta: Stress tensor (nonmol) (eV/Ang**3):
         0.006058    0.000000   -0.000000
         0.000000   -0.000084   -0.000118
        -0.000000   -0.000118   -0.007616

siesta: Pressure (nonmol):          0.87746048  kBar

siesta: Stress tensor (nonmol+kin) (eV/Ang**3):
         0.005963    0.000000   -0.000000
         0.000000   -0.000462   -0.000195
        -0.000000   -0.000194   -0.007640

siesta: Pressure (nonmol+kin):          1.14190593  kBar

siesta: Temp_ion =      94.266 K

                     ====================================
                        Begin MD step =      8
                     ====================================

outcoor: Atomic coordinates (Ang):                          
   -0.00000000   -0.02712784   -0.00074914   1       1  O
    0.94580532    0.78664656    0.02286814   2       2  H
   -0.94580532    0.78664656    0.02286814   2       3  H
   -0.00000000    0.02709529    2.99747069   1       4  O
    0.94571670   -0.78645479    2.96406869   2       5  H
   -0.94571670   -0.78645479    2.96406869   2       6  H

outcell: Unit cell vectors (Ang):
        9.971944    0.000000   -0.000000
        0.000000    9.971391    0.000173
       -0.000000    0.000216    7.961747

outcell: Cell vector modules (Ang)   :    9.971944    9.971391    7.961747
outcell: Cell angles (23,13,12) (deg):     89.9975     90.0000     90.0000
outcell: Cell volume (Ang**3)        :    791.6695
Gamma-point calculation with multiply-connected orbital pairs
Folding of H and S implicitly performed
<dSpData1D:S at geom step 8
  <sparsity:sparsity for geom step 8
    nrows_g=12 nrows=12 sparsity=1.0000 nnzs=144, refcount: 7>
  <dData1D:(new from dSpData1D) n=144, refcount: 1>
refcount: 1>
new_DM -- step:     8
Re-using DM from previous geometries...
Number of DMs in history: 1
 DM extrapolation coefficients: 
1   1.00000
New DM after history re-use:
<dSpData2D:SpM extrapolated using coords
  <sparsity:sparsity for geom step 8
    nrows_g=12 nrows=12 sparsity=1.0000 nnzs=144, refcount: 9>
  <dData2D:(temp array for extrapolation) n=144 m=1, refcount: 1>
refcount: 1>
No. of atoms with KB's overlaping orbs in proc 0. Max # of overlaps:       6      11

InitMesh: MESH = 60 x 60 x 48 = 172800
InitMesh: Mesh cutoff (required, used) =   100.000   100.056 Ry
New grid distribution [1]: sub = 2

        iscf     Eharris(eV)        E_KS(eV)     FreeEng(eV)     dDmax    Ef(eV) dHmax(eV)
   scf:    1     -924.435825     -924.707795     -924.707795  0.025201 -1.877910  0.449054
   scf:    2     -924.482315     -924.648315     -924.648315  0.063307 -1.652949  1.078383
   scf:    3     -924.744015     -924.722257     -924.722257  0.044313 -1.814579  0.039366
   scf:    4     -924.722355     -924.722308     -924.722308  0.000685 -1.816786  0.027106
   scf:    5     -924.722386     -924.722351     -924.722351  0.001449 -1.822934  0.002514
   scf:    6     -924.722352     -924.722352     -924.722352  0.000054 -1.823402  0.000789

SCF Convergence by DM+H criterion
max |DM_out - DM_in|         :     0.0000536103
max |H_out - H_in|      (eV) :     0.0007886158
SCF cycle converged after 6 iterations

Using DM_out to compute the final energy and forces
No. of atoms with KB's overlaping orbs in proc 0. Max # of overlaps:       6      11

siesta: E_KS(eV) =             -924.7224

siesta: Atomic forces (eV/Ang):
     1    0.000000    3.552413    0.085129
     2   -2.453073   -1.746853    0.031479
     3    2.453073   -1.746853    0.031479
     4   -0.000000   -3.551027   -0.638292
     5   -2.453153    1.747816   -0.014160
     6    2.453153    1.747816   -0.014160
----------------------------------------
   Tot   -0.000000    0.003312   -0.518524
----------------------------------------
   Max    3.552413
   Res    1.854877    sqrt( Sum f_i^2 / 3N )
----------------------------------------
   Max    3.552413    constrained

Stress tensor Voigt[x,y,z,yz,xz,xy] (kbar):       18.59       11.25       -0.41       -0.18        0.00        0.00
(Free)E + p*V (eV/cell)     -929.5700

Inter molecular stress Voigt[x,y,z,yz,xz,xy] (kbar):        7.67        0.33      -11.33       -0.18        0.00        0.00
(Free)E + p_inter_molec * V  (eV/cell)     -924.1731
Target enthalpy (eV/cell)     -875.3102

siesta: Stress tensor (static) (eV/Ang**3):
         0.011686    0.000000   -0.000000
         0.000000    0.007071   -0.000087
         0.000000   -0.000087   -0.000233

siesta: Pressure (static):         -9.89275564  kBar

siesta: Stress tensor (total) (eV/Ang**3):
         0.011601    0.000000   -0.000000
         0.000000    0.007024   -0.000116
         0.000000   -0.000115   -0.000255

siesta: Pressure (total):         -9.81068817  kBar

siesta: Stress tensor (nonmol) (eV/Ang**3):
         0.004869    0.000000   -0.000000
         0.000000    0.000254   -0.000087
         0.000000   -0.000087   -0.007051

siesta: Pressure (nonmol):          1.02957822  kBar

siesta: Stress tensor (nonmol+kin) (eV/Ang**3):
         0.004784    0.000000   -0.000000
         0.000000    0.000207   -0.000116
         0.000000   -0.000115   -0.007073

siesta: Pressure (nonmol+kin):          1.11164570  kBar

siesta: Temp_ion =     487.193 K

                     ====================================
                        Begin MD step =      9
                     ====================================

outcoor: Atomic coordinates (Ang):                          
   -0.00000000   -0.02528583   -0.00079107   1       1  O
    0.89602467    0.76937724    0.02821421   2       2  H
   -0.89602467    0.76937724    0.02821421   2       3  H
   -0.00000000    0.02525865    2.99520026   1       4  O
    0.89592256   -0.76913868    2.95543557   2       5  H
   -0.89592256   -0.76913868    2.95543557   2       6  H

outcell: Unit cell vectors (Ang):
        9.963333   -0.000000   -0.000000
        0.000000    9.963022    0.000214
       -0.000000    0.000267    7.951301

outcell: Cell vector modules (Ang)   :    9.963333    9.963022    7.951301
outcell: Cell angles (23,13,12) (deg):     89.9968     90.0000     90.0000
outcell: Cell volume (Ang**3)        :    789.2851
Gamma-point calculation with multiply-connected orbital pairs
Folding of H and S implicitly performed
<dSpData1D:S at geom step 9
  <sparsity:sparsity for geom step 9
    nrows_g=12 nrows=12 sparsity=1.0000 nnzs=144, refcount: 7>
  <dData1D:(new from dSpData1D) n=144, refcount: 1>
refcount: 1>
new_DM -- step:     9
Re-using DM from previous geometries...
Number of DMs in history: 1
 DM extrapolation coefficients: 
1   1.00000
New DM after history re-use:
<dSpData2D:SpM extrapolated using coords
  <sparsity:sparsity for geom step 9
    nrows_g=12 nrows=12 sparsity=1.0000 nnzs=144, refcount: 9>
  <dData2D:(temp array for extrapolation) n=144 m=1, refcount: 1>
refcount: 1>
Note: For starting DM, Qtot, Tr[D*S] =         16.00000000         16.03664843
No. of atoms with KB's overlaping orbs in proc 0. Max # of overlaps:       6      11

InitMesh: MESH = 60 x 60 x 48 = 172800
InitMesh: Mesh cutoff (required, used) =   100.000   100.229 Ry
New grid distribution [1]: sub = 2

        iscf     Eharris(eV)        E_KS(eV)     FreeEng(eV)     dDmax    Ef(eV) dHmax(eV)
   scf:    1     -924.293397     -925.179429     -925.179429  0.077272 -1.471415  1.106159
   scf:    2     -924.109365     -924.909548     -924.909548  0.144265 -0.918236  2.385110
   scf:    3     -925.375363     -925.265581     -925.265581  0.098569 -1.307531  0.103886
   scf:    4     -925.266240     -925.265932     -925.265932  0.002092 -1.312692  0.070920
   scf:    5     -925.266400     -925.266189     -925.266189  0.003582 -1.327384  0.012862
   scf:    6     -925.266194     -925.266186     -925.266186  0.000727 -1.332624  0.003495
   scf:    7     -925.266187     -925.266187     -925.266187  0.000087 -1.333374  0.001868
   scf:    8     -925.266187     -925.266187     -925.266187  0.000044 -1.333471  0.001284
   scf:    9     -925.266187     -925.266187     -925.266187  0.000056 -1.333498  0.000493

SCF Convergence by DM+H criterion
max |DM_out - DM_in|         :     0.0000556968
max |H_out - H_in|      (eV) :     0.0004934588
SCF cycle converged after 9 iterations

Using DM_out to compute the final energy and forces
No. of atoms with KB's overlaping orbs in proc 0. Max # of overlaps:       6      11

siesta: E_KS(eV) =             -925.2662

siesta: Atomic forces (eV/Ang):
     1    0.000000    2.920753    0.084947
     2   -1.748057   -1.433830    0.038266
     3    1.748057   -1.433830    0.038266
     4    0.000000   -2.920469   -0.695873
     5   -1.748381    1.435685   -0.023363
     6    1.748381    1.435685   -0.023363
----------------------------------------
   Tot    0.000000    0.003996   -0.581122
----------------------------------------
   Max    2.920753
   Res    1.453246    sqrt( Sum f_i^2 / 3N )
----------------------------------------
   Max    2.920753    constrained

Stress tensor Voigt[x,y,z,yz,xz,xy] (kbar):       11.48        8.99       -0.28       -0.15        0.00        0.00
(Free)E + p*V (eV/cell)     -928.5801

Inter molecular stress Voigt[x,y,z,yz,xz,xy] (kbar):        3.24        0.74       -8.53       -0.15        0.00        0.00
(Free)E + p_inter_molec * V  (eV/cell)     -924.5200
Target enthalpy (eV/cell)     -876.0029

siesta: Stress tensor (static) (eV/Ang**3):
         0.007902    0.000000    0.000000
         0.000000    0.005647   -0.000117
         0.000000   -0.000117   -0.000157

siesta: Pressure (static):         -7.15228533  kBar

siesta: Stress tensor (total) (eV/Ang**3):
         0.007165    0.000000    0.000000
         0.000000    0.005608   -0.000092
         0.000000   -0.000092   -0.000177

siesta: Pressure (total):         -6.72692114  kBar

siesta: Stress tensor (nonmol) (eV/Ang**3):
         0.002758    0.000000    0.000000
         0.000000    0.000503   -0.000117
         0.000000   -0.000117   -0.005301

siesta: Pressure (nonmol):          1.08925159  kBar

siesta: Stress tensor (nonmol+kin) (eV/Ang**3):
         0.002021    0.000000    0.000000
         0.000000    0.000464   -0.000092
         0.000000   -0.000092   -0.005321

siesta: Pressure (nonmol+kin):          1.51461578  kBar

siesta: Temp_ion =    1265.380 K

                     ====================================
                        Begin MD step =     10
                     ====================================

outcoor: Atomic coordinates (Ang):                          
    0.00000000   -0.02169768   -0.00078155   1       1  O
    0.82979217    0.73845297    0.03388477   2       2  H
   -0.82979217    0.73845297    0.03388477   2       3  H
   -0.00000000    0.02167665    2.99200561   1       4  O
    0.82967359   -0.73814962    2.94612289   2       5  H
   -0.82967359   -0.73814962    2.94612289   2       6  H

outcell: Unit cell vectors (Ang):
        9.953562   -0.000000   -0.000000
        0.000000    9.953510    0.000256
       -0.000000    0.000320    7.939541

outcell: Cell vector modules (Ang)   :    9.953562    9.953510    7.939541
outcell: Cell angles (23,13,12) (deg):     89.9962     90.0000     90.0000
outcell: Cell volume (Ang**3)        :    786.5931
Gamma-point calculation with multiply-connected orbital pairs
Folding of H and S implicitly performed
<dSpData1D:S at geom step 10
  <sparsity:sparsity for geom step 10
    nrows_g=12 nrows=12 sparsity=1.0000 nnzs=144, refcount: 7>
  <dData1D:(new from dSpData1D) n=144, refcount: 1>
refcount: 1>
new_DM -- step:    10
Re-using DM from previous geometries...
Number of DMs in history: 1
 DM extrapolation coefficients: 
1   1.00000
New DM after history re-use:
<dSpData2D:SpM extrapolated using coords
  <sparsity:sparsity for geom step 10
    nrows_g=12 nrows=12 sparsity=1.0000 nnzs=144, refcount: 9>
  <dData2D:(temp array for extrapolation) n=144 m=1, refcount: 1>
refcount: 1>
Note: For starting DM, Qtot, Tr[D*S] =         16.00000000         16.04147654
No. of atoms with KB's overlaping orbs in proc 0. Max # of overlaps:       6      11

InitMesh: MESH = 60 x 60 x 48 = 172800
InitMesh: Mesh cutoff (required, used) =   100.000   100.426 Ry
New grid distribution [1]: sub = 2

        iscf     Eharris(eV)        E_KS(eV)     FreeEng(eV)     dDmax    Ef(eV) dHmax(eV)
   scf:    1     -924.066314     -925.560461     -925.560461  0.114301 -3.995529  1.456510
   scf:    2     -924.320785     -925.278076     -925.278076  0.165564 -3.225798  2.661182
   scf:    3     -925.850811     -925.705390     -925.705390  0.107752 -3.741061  0.142006
   scf:    4     -925.706504     -925.705973     -925.705973  0.002941 -3.749472  0.097761
   scf:    5     -925.706760     -925.706407     -925.706407  0.005204 -3.773150  0.021494
   scf:    6     -925.706448     -925.706430     -925.706430  0.001064 -3.782163  0.007638
   scf:    7     -925.706433     -925.706432     -925.706432  0.000167 -3.784541  0.003552
   scf:    8     -925.706433     -925.706432     -925.706432  0.000080 -3.784653  0.002463
   scf:    9     -925.706433     -925.706433     -925.706433  0.000101 -3.784590  0.001005
   scf:   10     -925.706433     -925.706433     -925.706433  0.000052 -3.784465  0.000254

SCF Convergence by DM+H criterion
max |DM_out - DM_in|         :     0.0000520679
max |H_out - H_in|      (eV) :     0.0002539006
SCF cycle converged after 10 iterations

Using DM_out to compute the final energy and forces
No. of atoms with KB's overlaping orbs in proc 0. Max # of overlaps:       6      11

siesta: E_KS(eV) =             -925.7064

siesta: Atomic forces (eV/Ang):
     1   -0.000000    1.359461    0.035940
     2   -0.350734   -0.659413    0.072160
     3    0.350734   -0.659413    0.072160
     4    0.000000   -1.361665   -0.667521
     5   -0.351568    0.662689   -0.067477
     6    0.351568    0.662689   -0.067477
----------------------------------------
   Tot    0.000000    0.004348   -0.622214
----------------------------------------
   Max    1.361665
   Res    0.596744    sqrt( Sum f_i^2 / 3N )
----------------------------------------
   Max    1.361665    constrained

Stress tensor Voigt[x,y,z,yz,xz,xy] (kbar):       -0.46        3.31       -0.12       -0.31        0.00       -0.00
(Free)E + p*V (eV/cell)     -926.1545

Inter molecular stress Voigt[x,y,z,yz,xz,xy] (kbar):       -3.61        0.16       -3.27       -0.31        0.00       -0.00
(Free)E + p_inter_molec * V  (eV/cell)     -924.6084
Target enthalpy (eV/cell)     -876.6112

siesta: Stress tensor (static) (eV/Ang**3):
         0.001448    0.000000    0.000000
        -0.000000    0.002390   -0.000264
         0.000000   -0.000264   -0.000054

siesta: Pressure (static):         -2.02099376  kBar

siesta: Stress tensor (total) (eV/Ang**3):
        -0.000286    0.000000    0.000000
        -0.000000    0.002068   -0.000191
         0.000000   -0.000191   -0.000073

siesta: Pressure (total):         -0.91265903  kBar

siesta: Stress tensor (nonmol) (eV/Ang**3):
        -0.000517    0.000000    0.000000
        -0.000000    0.000424   -0.000264
         0.000000   -0.000264   -0.002020

siesta: Pressure (nonmol):          1.12823434  kBar

siesta: Stress tensor (nonmol+kin) (eV/Ang**3):
        -0.002252    0.000000    0.000000
        -0.000000    0.000102   -0.000191
         0.000000   -0.000191   -0.002038

siesta: Pressure (nonmol+kin):          2.23656907  kBar

siesta: Temp_ion =    1854.314 K

outcell: Unit cell vectors (Ang):
        9.953562   -0.000000   -0.000000
        0.000000    9.953510    0.000256
       -0.000000    0.000320    7.939541

outcell: Cell vector modules (Ang)   :    9.953562    9.953510    7.939541
outcell: Cell angles (23,13,12) (deg):     89.9962     90.0000     90.0000
outcell: Cell volume (Ang**3)        :    786.5931

siesta: Program's energy decomposition (eV):
siesta: Ebs     =      -187.976123
siesta: Eions   =      1621.026762
siesta: Ena     =       347.582004
siesta: Ekin    =       684.923891
siesta: Enl     =      -113.321600
siesta: Eso     =         0.000000
siesta: Edftu   =         0.000000
siesta: DEna    =        -7.412605
siesta: DUscf   =         3.193846
siesta: DUext   =         0.000000
siesta: Ex      =      -194.849484
siesta: Ec      =       -24.795723
siesta: Exc     =      -219.645207
siesta: EbV     =         0.000000
siesta: eta*DQ  =         0.000000
siesta: Emadel  =         0.000000
siesta: Emeta   =         0.000000
siesta: Emolmec =         0.000000
siesta: Ekinion =         1.198443
siesta: Eharris =      -924.507989
siesta: Etot    =      -924.507989
siesta: FreeEng =      -924.507989

siesta: Final energy (eV):
siesta:  Band Struct. =    -187.976123
siesta:       Kinetic =     684.923891
siesta:       Hartree =     923.373399
siesta:         Edftu =       0.000000
siesta:       Eso     =       0.000000
siesta:    Ext. field =       0.000000
siesta:         Exch. =    -194.849484
siesta:         Corr. =     -24.795723
siesta:     Bulk bias =       0.000000
siesta:   Exch.-corr. =    -219.645207
siesta:  Ion-electron =   -2431.890820
siesta:       Ion-ion =     117.532304
siesta:       Ekinion =       1.198443
siesta: D3 dispersion =       0.000000
siesta:         Total =    -924.507989
siesta:         Fermi =      -3.784465

siesta: Atomic forces (eV/Ang):
siesta:      1   -0.000000    1.359461    0.035940
siesta:      2   -0.350734   -0.659413    0.072160
siesta:      3    0.350734   -0.659413    0.072160
siesta:      4    0.000000   -1.361665   -0.667521
siesta:      5   -0.351568    0.662689   -0.067477
siesta:      6    0.351568    0.662689   -0.067477
siesta: ----------------------------------------
siesta:    Tot    0.000000    0.004348   -0.622214

siesta: Stress tensor (static) (eV/Ang**3):
siesta:     0.001448    0.000000    0.000000
siesta:    -0.000000    0.002390   -0.000264
siesta:     0.000000   -0.000264   -0.000054

siesta: Constrained stress tensor (static) (eV/Ang**3):
siesta:    -0.000517    0.000000    0.000000
siesta:    -0.000000    0.000424   -0.000264
siesta:     0.000000   -0.000264   -0.002020

siesta: Cell volume =        786.593090 Ang**3

siesta: Pressure (static):
siesta:                Solid            Molecule  Units
siesta:          -0.00001374          0.00000767  Ry/Bohr**3
siesta:          -0.00126141          0.00070419  eV/Ang**3
siesta:          -2.02099376          1.12823434  kBar
(Free)E+ p_basis*V_orbitals  =        -925.056419
(Free)Eharris+ p_basis*V_orbitals  =        -925.056419

siesta: Electric dipole (a.u.)  =    0.000000    0.000709   -0.000000
siesta: Electric dipole (Debye) =    0.000000    0.001803   -0.000000

cite: Please see "npr_rip.bib" for an exhaustive BiBTeX file.
cite: Please clearly indicate Siesta version in published work: 5.0.0-alpha-123-gfb8fd7d02
cite: This calculation has made use of the following articles
cite: which are encouraged to be cited in a published work.
        Primary SIESTA paper
          DOI: www.doi.org/10.1088/0953-8984/14/11/302


timer: Elapsed wall time (sec) =       1.832
timer: CPU execution times (sec):

Routine            Calls   Time/call    Tot.time        %
siesta                 1       1.832       1.832   100.00
Setup                  1       0.054       0.054     2.96
bands                  1       0.000       0.000     0.00
KSV_init               1       0.000       0.000     0.00
IterGeom              10       0.178       1.777    97.02
geom_init             10       0.034       0.336    18.35
state_init            10       0.000       0.005     0.26
hsparse               10       0.000       0.000     0.02
overlap               10       0.000       0.002     0.12
Setup_H0              10       0.019       0.192    10.51
naefs                 20       0.000       0.001     0.03
MolMec                20       0.000       0.000     0.00
kinefsm               20       0.000       0.002     0.12
nlefsm                20       0.001       0.014     0.77
DHSCF_Init            10       0.018       0.177     9.65
DHSCF1                10       0.003       0.026     1.41
INITMESH              10       0.000       0.000     0.00
DHSCF2                10       0.015       0.151     8.24
REMESH                10       0.001       0.006     0.32
REORD                286       0.000       0.035     1.91
PHION                 10       0.005       0.050     2.74
COMM_BSC             442       0.000       0.045     2.47
POISON               113       0.006       0.637    34.78
fft                  226       0.002       0.497    27.15
setup_H               93       0.014       1.274    69.56
DHSCF                103       0.015       1.560    85.14
DHSCF3               103       0.014       1.405    76.69
rhoofd               103       0.001       0.060     3.26
XC                   103       0.005       0.522    28.48
GXC-CellXC           103       0.005       0.479    26.15
gridxc@cellXC        103       0.005       0.479    26.14
vmat                 103       0.001       0.053     2.90
IterSCF               83       0.014       1.143    62.42
compute_dm            83       0.000       0.004     0.20
diagon                83       0.000       0.003     0.19
r-eigvec              83       0.000       0.003     0.15
r-buildHS             83       0.000       0.000     0.00
rdiag                 83       0.000       0.003     0.14
rdiag1                83       0.000       0.000     0.01
rdiag2                83       0.000       0.000     0.02
rdiag3                83       0.000       0.001     0.07
rdiag4                83       0.000       0.000     0.02
r-buildD              83       0.000       0.000     0.02
MIXER                 73       0.000       0.000     0.03
PostSCF               10       0.029       0.294    16.04
DHSCF4                10       0.015       0.155     8.45
dfscf                 10       0.011       0.109     5.95
overfsm               10       0.000       0.000     0.02
state_analysis        10       0.000       0.001     0.06
siesta_move           10       0.000       0.002     0.11
Analysis               1       0.000       0.000     0.01
optical                1       0.000       0.000     0.00
  

>> End of run:  28-SEP-2023  15:37:39
Job completed
