Siesta Version  : 5.0.0-alpha-123-gfb8fd7d02
Architecture    : ----
Compiler version: GNU-11.4.0
Compiler flags  : -fallow-argument-mismatch;-O3 -march=native
PP flags        : ----
Libraries       : ----
Parallelisations: none
GEMM3M support
NetCDF support
NetCDF-4 support
Lua support

Runtime information:
* Directory : /home/fnpedron/Siesta/siesta-dev/Tests/09.MolecularDynamics/work/npr_half_restart
* Running in serial mode.
>> Start of run:  28-SEP-2023  15:38:01

                           *********************** 
                           *  WELCOME TO SIESTA  * 
                           *********************** 

reinit: Reading from standard input
reinit: Dumping input in INPUT_TMP.75147
************************** Dump of input data file ****************************
%include ../../basejob.fdf
SystemLabel          npr
MD.TypeOfRun         NoseParrinelloRahman
MD.TargetPressure   10.0 GPa
************************** End of input data file *****************************

reinit: -----------------------------------------------------------------------
reinit: System Name: Water molecules MD
reinit: -----------------------------------------------------------------------
reinit: System Label: npr
reinit: -----------------------------------------------------------------------

initatom: Reading input for the pseudopotentials and atomic orbitals ----------
Species number:   1 Atomic number:    8 Label: O
Species number:   2 Atomic number:    1 Label: H


---- Processing specs for species: O
Ground state valence configuration:   2s02  2p04
Reading pseudopotential information in formatted form from:
  /home/fnpedron/Siesta/siesta-dev/Tests/Pseudos/O.psf

---- Processing specs for species: H
Ground state valence configuration:   1s01
Reading pseudopotential information in formatted form from:
  /home/fnpedron/Siesta/siesta-dev/Tests/Pseudos/H.psf

---- Pseudopotential check for O 

Pseudized shells:
2s( 2.00) rc: 1.14
2p( 4.00) rc: 1.14
3d( 0.00) rc: 1.14
4f( 0.00) rc: 1.14
Valence configuration for ps generation: (assumed as above)

---- Pseudopotential check for H 

Pseudized shells:
1s( 1.00) rc: 1.25
2p( 0.00) rc: 1.25
3d( 0.00) rc: 1.25
4f( 0.00) rc: 1.25
Valence configuration for ps generation: (assumed as above)
For O, standard SIESTA heuristics set lmxkb to 2
 (one more than the basis l, including polarization orbitals).
Use PS.lmax or PS.KBprojectors blocks to override.
For H, standard SIESTA heuristics set lmxkb to 1
 (one more than the basis l, including polarization orbitals).
Use PS.lmax or PS.KBprojectors blocks to override.

<basis_specs>
===============================================================================
O                    Z=   8    Mass=  15.999        Charge= 0.17977+309
Lmxo=1 Lmxkb= 2    BasisType=split      Semic=F
L=0  Nsemic=0  Cnfigmx=2
          i=1  nzeta=1  polorb=0  (2s)
            splnorm:   0.15000    
               vcte:    40.000    
               rinn:  -0.90000    
               qcoe:    0.0000    
               qyuk:    0.0000    
               qwid:   0.10000E-01
                rcs:    0.0000    
            lambdas:    1.0000    
L=1  Nsemic=0  Cnfigmx=2
          i=1  nzeta=1  polorb=0  (2p)
            splnorm:   0.15000    
               vcte:    40.000    
               rinn:  -0.90000    
               qcoe:    0.0000    
               qyuk:    0.0000    
               qwid:   0.10000E-01
                rcs:    0.0000    
            lambdas:    1.0000    
-------------------------------------------------------------------------------
L=0  Nkbl=1  erefs: 0.17977+309
L=1  Nkbl=1  erefs: 0.17977+309
L=2  Nkbl=1  erefs: 0.17977+309
===============================================================================
</basis_specs>

Using PAO.SplitTailNorm
atom: Called for O                     (Z =   8)
Maximum radius (at nrval) set to   50.00000 8518

read_vps: Pseudopotential generation method:
read_vps: ATM3      Troullier-Martins                       
Valence charge in pseudo generation:    6.00000

xc_check: Exchange-correlation functional:
xc_check: Ceperley-Alder
V l=0 = -2*Zval/r beyond r=  1.1366
V l=1 = -2*Zval/r beyond r=  1.1332
V l=2 = -2*Zval/r beyond r=  1.1298
All V_l potentials equal beyond r=  1.1355
This should be close to max(r_c) in ps generation
All pots = -2*Zval/r beyond r=  1.1366
Using small-core scheme (local charge) for Vlocal

VLOCAL_FROM_CHLOCAL: 99.0% of the norm of Vloc inside     33.667 Ry
VLOCAL_FROM_CHLOCAL: 99.9% of the norm of Vloc inside     76.727 Ry
atom: Maximum radius for chlocal:    1.37241
atom: Maximum radius for r*vlocal+2*Zval:    1.25469

KBgen: Kleinman-Bylander projectors: 
GHOST: No ghost state for L =  0
   l= 0   rc=  1.293209   el= -1.742414   Ekb=  9.076872   kbcos=  0.325320
GHOST: No ghost state for L =  1
   l= 1   rc=  1.284119   el= -0.676589   Ekb= -8.194485   kbcos= -0.396010
GHOST: No ghost state for L =  2
   l= 2   rc=  1.433152   el=  0.013307   Ekb= -2.071665   kbcos= -0.003690

KBgen: Total number of Kleinman-Bylander projectors:   9
atom: -------------------------------------------------------------------------

atom: SANKEY-TYPE ORBITALS:

SPLIT: Orbitals with angular momentum L= 0

SPLIT: Basis orbitals for state 2s

SPLIT: PAO cut-off radius determined from an
SPLIT: energy shift=  0.010000 Ry
Split based on tail norm

   izeta = 1
                 lambda =    1.000000
                     rc =    3.560943
                 energy =   -1.731321
                kinetic =    1.587329
    potential(screened) =   -3.318651
       potential(ionic) =  -11.260325

SPLIT: Orbitals with angular momentum L= 1

SPLIT: Basis orbitals for state 2p

SPLIT: PAO cut-off radius determined from an
SPLIT: energy shift=  0.010000 Ry
Split based on tail norm

   izeta = 1
                 lambda =    1.000000
                     rc =    4.290924
                 energy =   -0.665565
                kinetic =    4.934810
    potential(screened) =   -5.600376
       potential(ionic) =  -13.346429
atom: Total number of Sankey-type orbitals:  4

atm_pop: Valence configuration (for local Pseudopot. screening):
 2s( 2.00)                                                            
 2p( 4.00)                                                            
Vna: chval, zval:    6.00000   6.00000

Vna:  Cut-off radius for the neutral-atom potential:   4.290924

atom: _________________________________________________________________________

<basis_specs>
===============================================================================
H                    Z=   1    Mass=  1.0080        Charge= 0.17977+309
Lmxo=0 Lmxkb= 1    BasisType=split      Semic=F
L=0  Nsemic=0  Cnfigmx=1
          i=1  nzeta=1  polorb=0  (1s)
            splnorm:   0.15000    
               vcte:    40.000    
               rinn:  -0.90000    
               qcoe:    0.0000    
               qyuk:    0.0000    
               qwid:   0.10000E-01
                rcs:    0.0000    
            lambdas:    1.0000    
-------------------------------------------------------------------------------
L=0  Nkbl=1  erefs: 0.17977+309
L=1  Nkbl=1  erefs: 0.17977+309
===============================================================================
</basis_specs>

Using PAO.SplitTailNorm
atom: Called for H                     (Z =   1)
Maximum radius (at nrval) set to   50.00000 8518

read_vps: Pseudopotential generation method:
read_vps: ATM3      Troullier-Martins                       
Valence charge in pseudo generation:    1.00000

xc_check: Exchange-correlation functional:
xc_check: Ceperley-Alder
V l=0 = -2*Zval/r beyond r=  1.2384
V l=1 = -2*Zval/r beyond r=  1.2321
All V_l potentials equal beyond r=  1.2371
This should be close to max(r_c) in ps generation
All pots = -2*Zval/r beyond r=  1.2384
Using small-core scheme (local charge) for Vlocal

VLOCAL_FROM_CHLOCAL: 99.0% of the norm of Vloc inside     28.363 Ry
VLOCAL_FROM_CHLOCAL: 99.9% of the norm of Vloc inside     64.639 Ry
atom: Maximum radius for chlocal:    1.44620
atom: Maximum radius for r*vlocal+2*Zval:    1.31026

KBgen: Kleinman-Bylander projectors: 
GHOST: No ghost state for L =  0
   l= 0   rc=  1.364142   el= -0.467325   Ekb= -2.009475   kbcos= -0.336680
GHOST: No ghost state for L =  1
   l= 1   rc=  1.430269   el=  0.007562   Ekb= -0.503817   kbcos= -0.022554

KBgen: Total number of Kleinman-Bylander projectors:   4
atom: -------------------------------------------------------------------------

atom: SANKEY-TYPE ORBITALS:

SPLIT: Orbitals with angular momentum L= 0

SPLIT: Basis orbitals for state 1s

SPLIT: PAO cut-off radius determined from an
SPLIT: energy shift=  0.010000 Ry
Split based on tail norm

   izeta = 1
                 lambda =    1.000000
                     rc =    5.285354
                 energy =   -0.456120
                kinetic =    0.900445
    potential(screened) =   -1.356565
       potential(ionic) =   -1.890080
atom: Total number of Sankey-type orbitals:  1

atm_pop: Valence configuration (for local Pseudopot. screening):
 1s( 1.00)                                                            
Vna: chval, zval:    1.00000   1.00000

Vna:  Cut-off radius for the neutral-atom potential:   5.285354

atom: _________________________________________________________________________

prinput: Basis input 

PAO.BasisType split     

%block ChemicalSpeciesLabel
    1    8 O                       # Species index, atomic number, species label
    2    1 H                       # Species index, atomic number, species label
%endblock ChemicalSpeciesLabel

%block PAO.Basis                 # Define Basis set
# WARNING: This information might be incomplete!
O                     2                    # Species label, number of l-shells
 n=2   0   1                         # n, l, Nzeta 
   3.561   
   1.000   
 n=2   1   1                         # n, l, Nzeta 
   4.291   
   1.000   
H                     1                    # Species label, number of l-shells
 n=1   0   1                         # n, l, Nzeta 
   5.285   
   1.000   
%endblock PAO.Basis

prinput: ----------------------------------------------------------------------

Dumping basis to NetCDF file O.ion.nc
Dumping basis to NetCDF file H.ion.nc
coor:   Atomic-coordinates input format  =     Cartesian coordinates
coor:                                          (in Angstroms)

ioxv: Reading coordinates and velocities from file
! Info in XV file prevails over previous structure input
WARNING: npr.NPR_RESTART not found--reading only XV file and moving back 1 time step using Euler

siesta: Atomic coordinates (Bohr) and species
siesta:      0.00000  -0.03892  -0.00109  1        1
siesta:      1.53381   1.37775   0.06071  2        2
siesta:     -1.53381   1.37775   0.06071  2        3
siesta:      0.00000   0.03896   5.65043  1        4
siesta:      1.53353  -1.37703   5.56272  2        5
siesta:     -1.53353  -1.37703   5.56272  2        6

siesta: System type = chain     

initatomlists: Number of atoms, orbitals, and projectors:      6    12    34

siesta: ******************** Simulation parameters ****************************
siesta:
siesta: The following are some of the parameters of the simulation.
siesta: A complete list of the parameters used, including default values,
siesta: can be found in file out.fdf
siesta:
redata: Spin configuration                          = none
redata: Number of spin components                   = 1
redata: Time-Reversal Symmetry                      = T
redata: Spin spiral                                 = F
redata: Long output                                 =   F
redata: Number of Atomic Species                    =        2
redata: Charge density info will appear in .RHO file
redata: Write Mulliken Pop.                         = NO
redata: Matel table size (NRTAB)                    =     1024
redata: Mesh Cutoff                                 =   100.0000 Ry
redata: Net charge of the system                    =     0.0000 |e|
redata: Min. number of SCF Iter                     =        0
redata: Max. number of SCF Iter                     =     1000
redata: SCF convergence failure will abort job
redata: SCF mix quantity                            = Hamiltonian
redata: Mix DM or H after convergence               =   F
redata: Recompute H after scf cycle                 =   F
redata: Mix DM in first SCF step                    =   T
redata: Write Pulay info on disk                    =   F
redata: New DM Occupancy tolerance                  = 0.000000000001
redata: No kicks to SCF
redata: DM Mixing Weight for Kicks                  =     0.5000
redata: Require Harris convergence for SCF          =   F
redata: Harris energy tolerance for SCF             =     0.000100 eV
redata: Require DM convergence for SCF              =   T
redata: DM tolerance for SCF                        =     0.000100
redata: Require EDM convergence for SCF             =   F
redata: EDM tolerance for SCF                       =     0.001000 eV
redata: Require H convergence for SCF               =   T
redata: Hamiltonian tolerance for SCF               =     0.001000 eV
redata: Require (free) Energy convergence for SCF   =   F
redata: (free) Energy tolerance for SCF             =     0.000100 eV
redata: Using DFT-D3 dispersion                     =   F
redata: Using Saved Data (generic)                  =   F
redata: Use continuation files for DM               =   F
redata: Neglect nonoverlap interactions             =   F
redata: Method of Calculation                       = Diagonalization
redata: Electronic Temperature                      =   299.9863 K
redata: Fix the spin of the system                  =   F
redata: Max. number of TDED Iter                    =        1
redata: Number of TDED substeps                     =        3
redata: Dynamics option                             = Nose-Parrinello-Rahman MD run
redata: Initial MD time step                        =        1
redata:   Final MD time step                        =       10
redata: Length of MD time step                      =     1.0000 fs
redata: Initial Temperature of MD run               =     0.0000 K
redata: Perform a MD quench                         =   F
redata: Nose mass                                   =  1360.5693 eV*fs**2
redata: Parrinello-Rahman mass                      =  1360.5693 eV*fs**2
redata: Target Temperature                          =     0.0000 Kelvin
redata: Target Pressure                             =     0.0624 eV/Ang**3
mix.SCF: Pulay mixing                            = Pulay
mix.SCF:    Variant                              = stable
mix.SCF:    History steps                        = 2
mix.SCF:    Linear mixing weight                 =     0.250000
mix.SCF:    Mixing weight                        =     0.250000
mix.SCF:    SVD condition                        = 0.1000E-07
redata: Save all siesta data in one NC              =   F
redata: ***********************************************************************

%block SCF.Mixers
  Pulay
%endblock SCF.Mixers

%block SCF.Mixer.Pulay
  # Mixing method
  method pulay
  variant stable

  # Mixing options
  weight 0.2500
  weight.linear 0.2500
  history 2
%endblock SCF.Mixer.Pulay

Size of DM history Fstack: 1
Total number of electrons:    16.000000
Total ionic charge:    16.000000

siesta: k-grid: Number of k-points = 1
siesta: k-point is Gamma-only

diag: Algorithm                                     = D&C
diag: Used triangular part                          = Lower
diag: Absolute tolerance                            =  0.100E-15
diag: Orthogonalization factor                      =  0.100E-05
diag: Memory factor                                 =  1.0000


ts: **************************************************************
ts: Save H and S matrices                           =    F
ts: Save DM and EDM matrices                        =    F
ts: Only save the overlap matrix S                  =    F
ts: **************************************************************

************************ Begin: TS CHECKS AND WARNINGS ************************
************************ End: TS CHECKS AND WARNINGS **************************


                     ====================================
                        Begin MD step =      1
                     ====================================

outcoor: Atomic coordinates (Ang):                          
    0.00000000   -0.02059584   -0.00057869   1       1  O
    0.81165855    0.72907280    0.03212591   2       2  H
   -0.81165855    0.72907280    0.03212591   2       3  H
    0.00000000    0.02061555    2.99008056   1       4  O
    0.81150988   -0.72869468    2.94366729   2       5  H
   -0.81150988   -0.72869468    2.94366729   2       6  H

outcell: Unit cell vectors (Ang):
        9.943305    0.000000   -0.000000
       -0.000000    9.943567    0.000284
        0.000000    0.000355    7.927309

outcell: Cell vector modules (Ang)   :    9.943305    9.943567    7.927309
outcell: Cell angles (23,13,12) (deg):     89.9958     90.0000     90.0000
outcell: Cell volume (Ang**3)        :    783.7884
Gamma-point calculation with multiply-connected orbital pairs
Folding of H and S implicitly performed
<dSpData1D:S at geom step 1
  <sparsity:sparsity for geom step 1
    nrows_g=12 nrows=12 sparsity=1.0000 nnzs=144, refcount: 7>
  <dData1D:(new from dSpData1D) n=144, refcount: 1>
refcount: 1>
new_DM -- step:     1
Initializing Density Matrix...
DM filled with atomic data:
<dSpData2D:DM initialized from atoms
  <sparsity:sparsity for geom step 1
    nrows_g=12 nrows=12 sparsity=1.0000 nnzs=144, refcount: 8>
  <dData2D:DM n=144 m=1, refcount: 1>
refcount: 1>
No. of atoms with KB's overlaping orbs in proc 0. Max # of overlaps:       6      11

InitMesh: MESH = 60 x 60 x 48 = 172800
InitMesh: Mesh cutoff (required, used) =   100.000   100.628 Ry
New grid distribution [1]: sub = 2

stepf: Fermi-Dirac step function

siesta: Program's energy decomposition (eV):
siesta: Ebs     =      -135.033269
siesta: Eions   =      1621.026762
siesta: Ena     =       347.464233
siesta: Ekin    =       737.033327
siesta: Enl     =      -131.062588
siesta: Eso     =         0.000000
siesta: Edftu   =         0.000000
siesta: DEna    =       -34.693787
siesta: DUscf   =         7.606053
siesta: DUext   =         0.000000
siesta: Ex      =      -203.237603
siesta: Ec      =       -25.217568
siesta: Exc     =      -228.455172
siesta: EbV     =         0.000000
siesta: eta*DQ  =         0.000000
siesta: Emadel  =         0.000000
siesta: Emeta   =         0.000000
siesta: Emolmec =         0.000000
siesta: Ekinion =         0.000000
siesta: Eharris =      -919.420577
siesta: Etot    =      -923.134697
siesta: FreeEng =      -923.134697

        iscf     Eharris(eV)        E_KS(eV)     FreeEng(eV)     dDmax    Ef(eV) dHmax(eV)
   scf:    1     -919.420577     -923.134697     -923.134697  0.663275 -4.868482  7.418381
timer: Routine,Calls,Time,% = IterSCF        1       0.012  10.43
   scf:    2     -926.836517     -925.251222     -925.251222  0.161082 -4.025551  3.276855
   scf:    3     -925.864525     -925.708428     -925.708428  0.114760 -3.459665  0.727202
   scf:    4     -925.733897     -925.721694     -925.721694  0.010238 -3.522686  0.523025
   scf:    5     -925.740865     -925.732018     -925.732018  0.020536 -3.603936  0.172850
   scf:    6     -925.733487     -925.732804     -925.732804  0.006578 -3.612139  0.085982
   scf:    7     -925.732862     -925.732846     -925.732846  0.002455 -3.610142  0.030741
   scf:    8     -925.732854     -925.732850     -925.732850  0.000143 -3.607064  0.015710
   scf:    9     -925.732865     -925.732858     -925.732858  0.000332 -3.602956  0.010111
   scf:   10     -925.732864     -925.732861     -925.732861  0.000283 -3.601377  0.005992
   scf:   11     -925.732864     -925.732862     -925.732862  0.000253 -3.600307  0.004275
   scf:   12     -925.732863     -925.732862     -925.732862  0.000071 -3.600185  0.003428
   scf:   13     -925.732862     -925.732862     -925.732862  0.000065 -3.600194  0.001884
   scf:   14     -925.732862     -925.732862     -925.732862  0.000009 -3.600317  0.001010
   scf:   15     -925.732862     -925.732862     -925.732862  0.000009 -3.600510  0.000537

SCF Convergence by DM+H criterion
max |DM_out - DM_in|         :     0.0000086256
max |H_out - H_in|      (eV) :     0.0005368140
SCF cycle converged after 15 iterations

Using DM_out to compute the final energy and forces
No. of atoms with KB's overlaping orbs in proc 0. Max # of overlaps:       6      11

siesta: E_KS(eV) =             -925.7329

siesta: E_KS - E_eggbox =      -925.7329

siesta: Atomic forces (eV/Ang):
     1    0.000000    0.746865   -0.002150
     2    0.154673   -0.356061    0.089784
     3   -0.154673   -0.356061    0.089784
     4   -0.000000   -0.751646   -0.724536
     5    0.153079    0.361080   -0.089768
     6   -0.153079    0.361080   -0.089768
----------------------------------------
   Tot   -0.000000    0.005255   -0.726655
----------------------------------------
   Max    0.751646
   Res    0.356605    sqrt( Sum f_i^2 / 3N )
----------------------------------------
   Max    0.751646    constrained

Stress tensor Voigt[x,y,z,yz,xz,xy] (kbar):       -4.63        0.95       -0.04       -0.37       -0.00        0.00
(Free)E + p*V (eV/cell)     -925.1273
Target enthalpy (eV/cell)     -876.8126

siesta: Stress tensor (static) (eV/Ang**3):
        -0.000668    0.000000   -0.000000
         0.000000    0.001197   -0.000337
        -0.000000   -0.000337   -0.000002

siesta: Pressure (static):         -0.28177395  kBar

siesta: Stress tensor (total) (eV/Ang**3):
        -0.002889    0.000000   -0.000000
         0.000000    0.000594   -0.000234
        -0.000000   -0.000234   -0.000022

siesta: Pressure (total):          1.23786949  kBar

siesta: Temp_ion =    1727.806 K

                     ====================================
                        Begin MD step =      2
                     ====================================

outcoor: Atomic coordinates (Ang):                          
    0.00000000   -0.01655068   -0.00054040   1       1  O
    0.74690841    0.69468319    0.03825876   2       2  H
   -0.74690841    0.69468319    0.03825876   2       3  H
   -0.00000000    0.01658360    2.98617562   1       4  O
    0.74672189   -0.69417174    2.93315494   2       5  H
   -0.74672189   -0.69417174    2.93315494   2       6  H

outcell: Unit cell vectors (Ang):
        9.931787   -0.000000    0.000000
        0.000000    9.932219    0.000329
        0.000000    0.000411    7.913266

outcell: Cell vector modules (Ang)   :    9.931787    9.932219    7.913266
outcell: Cell angles (23,13,12) (deg):     89.9951     90.0000     90.0000
outcell: Cell volume (Ang**3)        :    780.6016
Gamma-point calculation with multiply-connected orbital pairs
Folding of H and S implicitly performed
<dSpData1D:S at geom step 2
  <sparsity:sparsity for geom step 2
    nrows_g=12 nrows=12 sparsity=1.0000 nnzs=144, refcount: 7>
  <dData1D:(new from dSpData1D) n=144, refcount: 1>
refcount: 1>
new_DM -- step:     2
Re-using DM from previous geometries...
Number of DMs in history: 1
 DM extrapolation coefficients: 
1   1.00000
New DM after history re-use:
<dSpData2D:SpM extrapolated using coords
  <sparsity:sparsity for geom step 2
    nrows_g=12 nrows=12 sparsity=1.0000 nnzs=144, refcount: 9>
  <dData2D:(temp array for extrapolation) n=144 m=1, refcount: 1>
refcount: 1>
Note: For starting DM, Qtot, Tr[D*S] =         16.00000000         16.01858009
No. of atoms with KB's overlaping orbs in proc 0. Max # of overlaps:       6      11

InitMesh: MESH = 60 x 60 x 48 = 172800
InitMesh: Mesh cutoff (required, used) =   100.000   100.858 Ry
New grid distribution [1]: sub = 2

        iscf     Eharris(eV)        E_KS(eV)     FreeEng(eV)     dDmax    Ef(eV) dHmax(eV)
   scf:    1     -923.623897     -925.249237     -925.249237  0.117834 -3.112137  1.299845
   scf:    2     -924.707181     -925.154781     -925.154781  0.122277 -2.429108  1.898869
   scf:    3     -925.439546     -925.359067     -925.359067  0.073158 -2.850450  0.120087
   scf:    4     -925.359720     -925.359403     -925.359403  0.002355 -2.859273  0.084592
   scf:    5     -925.359907     -925.359684     -925.359684  0.005274 -2.884880  0.015868
   scf:    6     -925.359697     -925.359691     -925.359691  0.000327 -2.889491  0.006968
   scf:    7     -925.359694     -925.359693     -925.359693  0.000168 -2.891947  0.003011
   scf:    8     -925.359694     -925.359693     -925.359693  0.000064 -2.891916  0.002078
   scf:    9     -925.359694     -925.359694     -925.359694  0.000113 -2.891747  0.000393
   scf:   10     -925.359694     -925.359694     -925.359694  0.000018 -2.891666  0.000176

SCF Convergence by DM+H criterion
max |DM_out - DM_in|         :     0.0000183597
max |H_out - H_in|      (eV) :     0.0001763930
SCF cycle converged after 10 iterations

Using DM_out to compute the final energy and forces
No. of atoms with KB's overlaping orbs in proc 0. Max # of overlaps:       6      11

siesta: E_KS(eV) =             -925.3597

siesta: Atomic forces (eV/Ang):
     1   -0.000000   -2.244365   -0.155944
     2    2.516126    1.127752    0.179261
     3   -2.516126    1.127752    0.179261
     4    0.000000    2.232721   -0.546619
     5    2.512916   -1.119037   -0.209327
     6   -2.512916   -1.119037   -0.209327
----------------------------------------
   Tot    0.000000    0.005786   -0.762694
----------------------------------------
   Max    2.516126
   Res    1.506221    sqrt( Sum f_i^2 / 3N )
----------------------------------------
   Max    2.516126    constrained

Stress tensor Voigt[x,y,z,yz,xz,xy] (kbar):      -19.03       -7.87        0.16       -0.96       -0.00       -0.00
(Free)E + p*V (eV/cell)     -921.0156
Target enthalpy (eV/cell)     -876.6384

siesta: Stress tensor (static) (eV/Ang**3):
        -0.009652   -0.000000   -0.000000
        -0.000000   -0.004308   -0.000702
        -0.000000   -0.000702    0.000119

siesta: Pressure (static):          7.39183012  kBar

siesta: Stress tensor (total) (eV/Ang**3):
        -0.011880   -0.000000   -0.000000
        -0.000000   -0.004913   -0.000599
        -0.000000   -0.000599    0.000098

siesta: Pressure (total):          8.91627213  kBar

siesta: Temp_ion =    1170.493 K

                     ====================================
                        Begin MD step =      3
                     ====================================

outcoor: Atomic coordinates (Ang):                          
   -0.00000000   -0.01386471   -0.00059606   1       1  O
    0.70629063    0.67108258    0.04608632   2       2  H
   -0.70629063    0.67108258    0.04608632   2       3  H
   -0.00000000    0.01390848    2.98144573   1       4  O
    0.70603567   -0.67035016    2.92016825   2       5  H
   -0.70603567   -0.67035016    2.92016825   2       6  H

outcell: Unit cell vectors (Ang):
        9.919410    0.000000    0.000000
        0.000000    9.919909    0.000384
        0.000000    0.000480    7.897918

outcell: Cell vector modules (Ang)   :    9.919410    9.919909    7.897918
outcell: Cell angles (23,13,12) (deg):     89.9943     90.0000     90.0000
outcell: Cell volume (Ang**3)        :    777.1523
Gamma-point calculation with multiply-connected orbital pairs
Folding of H and S implicitly performed
<dSpData1D:S at geom step 3
  <sparsity:sparsity for geom step 3
    nrows_g=12 nrows=12 sparsity=1.0000 nnzs=144, refcount: 7>
  <dData1D:(new from dSpData1D) n=144, refcount: 1>
refcount: 1>
new_DM -- step:     3
Re-using DM from previous geometries...
Number of DMs in history: 1
 DM extrapolation coefficients: 
1   1.00000
New DM after history re-use:
<dSpData2D:SpM extrapolated using coords
  <sparsity:sparsity for geom step 3
    nrows_g=12 nrows=12 sparsity=1.0000 nnzs=144, refcount: 9>
  <dData2D:(temp array for extrapolation) n=144 m=1, refcount: 1>
refcount: 1>
No. of atoms with KB's overlaping orbs in proc 0. Max # of overlaps:       6      11

InitMesh: MESH = 60 x 60 x 48 = 172800
InitMesh: Mesh cutoff (required, used) =   100.000   101.109 Ry
New grid distribution [1]: sub = 2

        iscf     Eharris(eV)        E_KS(eV)     FreeEng(eV)     dDmax    Ef(eV) dHmax(eV)
   scf:    1     -923.551623     -924.567119     -924.567119  0.079691 -2.532162  0.798170
   scf:    2     -924.423079     -924.548509     -924.548509  0.070347 -2.109624  1.037069
   scf:    3     -924.632164     -924.607141     -924.607141  0.039664 -2.356696  0.064281
   scf:    4     -924.607311     -924.607228     -924.607228  0.001206 -2.362484  0.046024
   scf:    5     -924.607378     -924.607312     -924.607312  0.003077 -2.379150  0.005281
   scf:    6     -924.607313     -924.607312     -924.607312  0.000087 -2.380191  0.002546
   scf:    7     -924.607313     -924.607313     -924.607313  0.000080 -2.381038  0.000749

SCF Convergence by DM+H criterion
max |DM_out - DM_in|         :     0.0000804157
max |H_out - H_in|      (eV) :     0.0007490227
SCF cycle converged after 7 iterations

Using DM_out to compute the final energy and forces
No. of atoms with KB's overlaping orbs in proc 0. Max # of overlaps:       6      11

siesta: E_KS(eV) =             -924.6073

siesta: Atomic forces (eV/Ang):
     1   -0.000000   -5.060610   -0.368596
     2    4.598025    2.523562    0.298150
     3   -4.598025    2.523562    0.298150
     4    0.000000    5.043593   -0.286650
     5    4.595362   -2.512083   -0.360344
     6   -4.595362   -2.512083   -0.360344
----------------------------------------
   Tot    0.000000    0.005942   -0.779633
----------------------------------------
   Max    5.060610
   Res    2.996102    sqrt( Sum f_i^2 / 3N )
----------------------------------------
   Max    5.060610    constrained

Stress tensor Voigt[x,y,z,yz,xz,xy] (kbar):      -29.12      -15.37        0.27       -1.68       -0.00        0.00
(Free)E + p*V (eV/cell)     -917.4579
Target enthalpy (eV/cell)     -876.1013

siesta: Stress tensor (static) (eV/Ang**3):
        -0.016737   -0.000000   -0.000000
         0.000000   -0.009117   -0.001157
        -0.000000   -0.001156    0.000198

siesta: Pressure (static):         13.70219255  kBar

siesta: Stress tensor (total) (eV/Ang**3):
        -0.018176   -0.000000   -0.000000
         0.000000   -0.009593   -0.001047
        -0.000000   -0.001046    0.000170

siesta: Pressure (total):         14.73930372  kBar

siesta: Temp_ion =     171.008 K

                     ====================================
                        Begin MD step =      4
                     ====================================

outcoor: Atomic coordinates (Ang):                          
   -0.00000000   -0.01423249   -0.00087345   1       1  O
    0.70967805    0.67160567    0.05673464   2       2  H
   -0.70967805    0.67160567    0.05673464   2       3  H
   -0.00000000    0.01428549    2.97604056   1       4  O
    0.70932941   -0.67053462    2.90326754   2       5  H
   -0.70932941   -0.67053462    2.90326754   2       6  H

outcell: Unit cell vectors (Ang):
        9.906256    0.000000    0.000000
        0.000000    9.906697    0.000457
        0.000000    0.000571    7.881245

outcell: Cell vector modules (Ang)   :    9.906256    9.906697    7.881245
outcell: Cell angles (23,13,12) (deg):     89.9932     90.0000     90.0000
outcell: Cell volume (Ang**3)        :    773.4518
Gamma-point calculation with multiply-connected orbital pairs
Folding of H and S implicitly performed
<dSpData1D:S at geom step 4
  <sparsity:sparsity for geom step 4
    nrows_g=12 nrows=12 sparsity=1.0000 nnzs=144, refcount: 7>
  <dData1D:(new from dSpData1D) n=144, refcount: 1>
refcount: 1>
new_DM -- step:     4
Re-using DM from previous geometries...
Number of DMs in history: 1
 DM extrapolation coefficients: 
1   1.00000
New DM after history re-use:
<dSpData2D:SpM extrapolated using coords
  <sparsity:sparsity for geom step 4
    nrows_g=12 nrows=12 sparsity=1.0000 nnzs=144, refcount: 9>
  <dData2D:(temp array for extrapolation) n=144 m=1, refcount: 1>
refcount: 1>
No. of atoms with KB's overlaping orbs in proc 0. Max # of overlaps:       6      11

InitMesh: MESH = 60 x 60 x 48 = 172800
InitMesh: Mesh cutoff (required, used) =   100.000   101.379 Ry
New grid distribution [1]: sub = 2

        iscf     Eharris(eV)        E_KS(eV)     FreeEng(eV)     dDmax    Ef(eV) dHmax(eV)
   scf:    1     -924.756582     -924.689153     -924.689153  0.013566 -2.408570  0.054502
   scf:    2     -924.688633     -924.689156     -924.689156  0.004870 -2.436608  0.071720
   scf:    3     -924.689541     -924.689426     -924.689426  0.002656 -2.420473  0.009027
   scf:    4     -924.689436     -924.689431     -924.689431  0.000240 -2.419869  0.006298
   scf:    5     -924.689440     -924.689436     -924.689436  0.000553 -2.418579  0.000381
   scf:    6     -924.689436     -924.689436     -924.689436  0.000009 -2.418595  0.000180

SCF Convergence by DM+H criterion
max |DM_out - DM_in|         :     0.0000091944
max |H_out - H_in|      (eV) :     0.0001796018
SCF cycle converged after 6 iterations

Using DM_out to compute the final energy and forces
No. of atoms with KB's overlaping orbs in proc 0. Max # of overlaps:       6      11

siesta: E_KS(eV) =             -924.6894

siesta: Atomic forces (eV/Ang):
     1    0.000000   -4.807094   -0.413264
     2    4.411633    2.397071    0.329549
     3   -4.411633    2.397071    0.329549
     4   -0.000000    4.795493   -0.244645
     5    4.413822   -2.387906   -0.391452
     6   -4.413822   -2.387906   -0.391452
----------------------------------------
   Tot   -0.000000    0.006728   -0.781715
----------------------------------------
   Max    4.807094
   Res    2.863991    sqrt( Sum f_i^2 / 3N )
----------------------------------------
   Max    4.807094    constrained

Stress tensor Voigt[x,y,z,yz,xz,xy] (kbar):      -26.26      -14.08        0.26       -1.95        0.00        0.00
(Free)E + p*V (eV/cell)     -918.2406
Target enthalpy (eV/cell)     -876.4144

siesta: Stress tensor (static) (eV/Ang**3):
        -0.016219    0.000000    0.000000
         0.000000   -0.008722   -0.001274
         0.000000   -0.001274    0.000213

siesta: Pressure (static):         13.20632566  kBar

siesta: Stress tensor (total) (eV/Ang**3):
        -0.016389    0.000000    0.000000
         0.000000   -0.008790   -0.001218
         0.000000   -0.001218    0.000165

siesta: Pressure (total):         13.35850870  kBar

siesta: Temp_ion =     320.542 K

                     ====================================
                        Begin MD step =      5
                     ====================================

outcoor: Atomic coordinates (Ang):                          
    0.00000000   -0.01749221   -0.00139869   1       1  O
    0.75515717    0.69497101    0.07049119   2       2  H
   -0.75515717    0.69497101    0.07049119   2       3  H
   -0.00000000    0.01755826    2.96998126   1       4  O
    0.75473609   -0.69346411    2.88216558   2       5  H
   -0.75473609   -0.69346411    2.88216558   2       6  H

outcell: Unit cell vectors (Ang):
        9.892313    0.000000    0.000000
        0.000000    9.892570    0.000553
        0.000000    0.000691    7.863238

outcell: Cell vector modules (Ang)   :    9.892313    9.892570    7.863238
outcell: Cell angles (23,13,12) (deg):     89.9918     90.0000     90.0000
outcell: Cell volume (Ang**3)        :    769.4995
Gamma-point calculation with multiply-connected orbital pairs
Folding of H and S implicitly performed
<dSpData1D:S at geom step 5
  <sparsity:sparsity for geom step 5
    nrows_g=12 nrows=12 sparsity=1.0000 nnzs=144, refcount: 7>
  <dData1D:(new from dSpData1D) n=144, refcount: 1>
refcount: 1>
new_DM -- step:     5
Re-using DM from previous geometries...
Number of DMs in history: 1
 DM extrapolation coefficients: 
1   1.00000
New DM after history re-use:
<dSpData2D:SpM extrapolated using coords
  <sparsity:sparsity for geom step 5
    nrows_g=12 nrows=12 sparsity=1.0000 nnzs=144, refcount: 9>
  <dData2D:(temp array for extrapolation) n=144 m=1, refcount: 1>
refcount: 1>
No. of atoms with KB's overlaping orbs in proc 0. Max # of overlaps:       6      11

InitMesh: MESH = 60 x 60 x 48 = 172800
InitMesh: Mesh cutoff (required, used) =   100.000   101.668 Ry
New grid distribution [1]: sub = 2

        iscf     Eharris(eV)        E_KS(eV)     FreeEng(eV)     dDmax    Ef(eV) dHmax(eV)
   scf:    1     -926.186600     -925.405551     -925.405551  0.086944 -2.802495  0.950064
   scf:    2     -925.109146     -925.353947     -925.353947  0.088737 -3.302637  1.404071
   scf:    3     -925.511810     -925.465555     -925.465555  0.051159 -3.000086  0.067399
   scf:    4     -925.465728     -925.465643     -925.465643  0.001101 -2.990880  0.049525
   scf:    5     -925.465835     -925.465744     -925.465744  0.002524 -2.974546  0.009988
   scf:    6     -925.465757     -925.465751     -925.465751  0.000532 -2.972586  0.002410
   scf:    7     -925.465753     -925.465752     -925.465752  0.000185 -2.972089  0.000587
   scf:    8     -925.465752     -925.465752     -925.465752  0.000017 -2.972137  0.000357

SCF Convergence by DM+H criterion
max |DM_out - DM_in|         :     0.0000167178
max |H_out - H_in|      (eV) :     0.0003570075
SCF cycle converged after 8 iterations

Using DM_out to compute the final energy and forces
No. of atoms with KB's overlaping orbs in proc 0. Max # of overlaps:       6      11

siesta: E_KS(eV) =             -925.4658

siesta: Atomic forces (eV/Ang):
     1    0.000000   -1.815188   -0.177518
     2    2.171517    0.911876    0.216146
     3   -2.171517    0.911876    0.216146
     4   -0.000000    1.815047   -0.533741
     5    2.177330   -0.907694   -0.245846
     6   -2.177330   -0.907694   -0.245846
----------------------------------------
   Tot    0.000000    0.008224   -0.770659
----------------------------------------
   Max    2.177330
   Res    1.276788    sqrt( Sum f_i^2 / 3N )
----------------------------------------
   Max    2.177330    constrained

Stress tensor Voigt[x,y,z,yz,xz,xy] (kbar):      -14.27       -5.88        0.18       -1.51       -0.00        0.00
(Free)E + p*V (eV/cell)     -922.2688
Target enthalpy (eV/cell)     -877.4374

siesta: Stress tensor (static) (eV/Ang**3):
        -0.008557    0.000000   -0.000000
         0.000000   -0.003571   -0.000852
         0.000000   -0.000852    0.000201

siesta: Pressure (static):          6.36980403  kBar

siesta: Stress tensor (total) (eV/Ang**3):
        -0.008906    0.000000   -0.000000
         0.000000   -0.003673   -0.000943
        -0.000000   -0.000942    0.000115

siesta: Pressure (total):          6.65647544  kBar

siesta: Temp_ion =    1419.405 K

                     ====================================
                        Begin MD step =      6
                     ====================================

outcoor: Atomic coordinates (Ang):                          
    0.00000000   -0.02182988   -0.00202848   1       1  O
    0.82113031    0.72688196    0.08624736   2       2  H
   -0.82113031    0.72688196    0.08624736   2       3  H
   -0.00000000    0.02191778    2.96308488   1       4  O
    0.82069264   -0.72489222    2.85827258   2       5  H
   -0.82069264   -0.72489222    2.85827258   2       6  H

outcell: Unit cell vectors (Ang):
        9.877462    0.000000    0.000000
        0.000000    9.877431    0.000667
        0.000000    0.000834    7.843872

outcell: Cell vector modules (Ang)   :    9.877462    9.877431    7.843872
outcell: Cell angles (23,13,12) (deg):     89.9900     90.0000     90.0000
outcell: Cell volume (Ang**3)        :    765.2791
Gamma-point calculation with multiply-connected orbital pairs
Folding of H and S implicitly performed
<dSpData1D:S at geom step 6
  <sparsity:sparsity for geom step 6
    nrows_g=12 nrows=12 sparsity=1.0000 nnzs=144, refcount: 7>
  <dData1D:(new from dSpData1D) n=144, refcount: 1>
refcount: 1>
new_DM -- step:     6
Re-using DM from previous geometries...
Number of DMs in history: 1
 DM extrapolation coefficients: 
1   1.00000
New DM after history re-use:
<dSpData2D:SpM extrapolated using coords
  <sparsity:sparsity for geom step 6
    nrows_g=12 nrows=12 sparsity=1.0000 nnzs=144, refcount: 9>
  <dData2D:(temp array for extrapolation) n=144 m=1, refcount: 1>
refcount: 1>
Note: For starting DM, Qtot, Tr[D*S] =         16.00000000         15.98333513
No. of atoms with KB's overlaping orbs in proc 0. Max # of overlaps:       6      11

InitMesh: MESH = 60 x 60 x 48 = 172800
InitMesh: Mesh cutoff (required, used) =   100.000   101.980 Ry
New grid distribution [1]: sub = 2

        iscf     Eharris(eV)        E_KS(eV)     FreeEng(eV)     dDmax    Ef(eV) dHmax(eV)
   scf:    1     -926.396797     -925.589428     -925.589428  0.125512 -3.442171  1.506995
   scf:    2     -924.419879     -925.337895     -925.337895  0.162326 -4.221075  2.637192
   scf:    3     -925.907122     -925.748865     -925.748865  0.097566 -3.721547  0.108668
   scf:    4     -925.749377     -925.749139     -925.749139  0.001505 -3.704095  0.081034
   scf:    5     -925.749632     -925.749395     -925.749395  0.003003 -3.685123  0.032379
   scf:    6     -925.749500     -925.749452     -925.749452  0.001782 -3.676868  0.004718
   scf:    7     -925.749456     -925.749455     -925.749455  0.000333 -3.675826  0.001153
   scf:    8     -925.749455     -925.749455     -925.749455  0.000046 -3.675789  0.000474

SCF Convergence by DM+H criterion
max |DM_out - DM_in|         :     0.0000456641
max |H_out - H_in|      (eV) :     0.0004744470
SCF cycle converged after 8 iterations

Using DM_out to compute the final energy and forces
No. of atoms with KB's overlaping orbs in proc 0. Max # of overlaps:       6      11

siesta: E_KS(eV) =             -925.7495

siesta: Atomic forces (eV/Ang):
     1    0.000000    1.012432    0.138423
     2   -0.107885   -0.494211    0.059813
     3    0.107885   -0.494211    0.059813
     4   -0.000000   -1.003370   -0.885196
     5   -0.102393    0.494386   -0.058244
     6    0.102393    0.494386   -0.058244
----------------------------------------
   Tot   -0.000000    0.009411   -0.743636
----------------------------------------
   Max    1.012432
   Res    0.463682    sqrt( Sum f_i^2 / 3N )
----------------------------------------
   Max    1.012432    constrained

Stress tensor Voigt[x,y,z,yz,xz,xy] (kbar):       -2.12        2.03        0.10       -0.76        0.00        0.00
(Free)E + p*V (eV/cell)     -925.7506
Target enthalpy (eV/cell)     -877.9845

siesta: Stress tensor (static) (eV/Ang**3):
         0.000433    0.000000    0.000000
         0.000000    0.001771   -0.000229
         0.000000   -0.000229    0.000191

siesta: Pressure (static):         -1.27889200  kBar

siesta: Stress tensor (total) (eV/Ang**3):
        -0.001325    0.000000    0.000000
         0.000000    0.001267   -0.000475
         0.000000   -0.000475    0.000062

siesta: Pressure (total):         -0.00249104  kBar

siesta: Temp_ion =    1860.223 K

                     ====================================
                        Begin MD step =      7
                     ====================================

outcoor: Atomic coordinates (Ang):                          
    0.00000000   -0.02553242   -0.00257121   1       1  O
    0.88561862    0.75381291    0.10247269   2       2  H
   -0.88561862    0.75381291    0.10247269   2       3  H
   -0.00000000    0.02565215    2.95512427   1       4  O
    0.88521694   -0.75133691    2.83340381   2       5  H
   -0.88521694   -0.75133691    2.83340381   2       6  H

outcell: Unit cell vectors (Ang):
        9.861534   -0.000000    0.000000
        0.000000    9.861162    0.000790
        0.000000    0.000988    7.823104

outcell: Cell vector modules (Ang)   :    9.861534    9.861162    7.823105
outcell: Cell angles (23,13,12) (deg):     89.9882     90.0000     90.0000
outcell: Cell volume (Ang**3)        :    760.7670
Gamma-point calculation with multiply-connected orbital pairs
Folding of H and S implicitly performed
<dSpData1D:S at geom step 7
  <sparsity:sparsity for geom step 7
    nrows_g=12 nrows=12 sparsity=1.0000 nnzs=144, refcount: 7>
  <dData1D:(new from dSpData1D) n=144, refcount: 1>
refcount: 1>
new_DM -- step:     7
Re-using DM from previous geometries...
Number of DMs in history: 1
 DM extrapolation coefficients: 
1   1.00000
New DM after history re-use:
<dSpData2D:SpM extrapolated using coords
  <sparsity:sparsity for geom step 7
    nrows_g=12 nrows=12 sparsity=1.0000 nnzs=144, refcount: 9>
  <dData2D:(temp array for extrapolation) n=144 m=1, refcount: 1>
refcount: 1>
Note: For starting DM, Qtot, Tr[D*S] =         16.00000000         15.96746026
No. of atoms with KB's overlaping orbs in proc 0. Max # of overlaps:       6      11

InitMesh: MESH = 60 x 60 x 48 = 172800
InitMesh: Mesh cutoff (required, used) =   100.000   102.309 Ry
New grid distribution [1]: sub = 2

        iscf     Eharris(eV)        E_KS(eV)     FreeEng(eV)     dDmax    Ef(eV) dHmax(eV)
   scf:    1     -925.798889     -925.230672     -925.230672  0.115256 -0.964542  1.561396
   scf:    2     -923.384933     -924.785199     -924.785199  0.189965 -4.844534  3.190585
   scf:    3     -925.629147     -925.408176     -925.408176  0.120690 -1.209969  0.115441
   scf:    4     -925.408894     -925.408576     -925.408576  0.001387 -1.192963  0.086314
   scf:    5     -925.409161     -925.408879     -925.408879  0.002726 -1.179056  0.039918
   scf:    6     -925.409035     -925.408965     -925.408965  0.002211 -1.169917  0.003409
   scf:    7     -925.408967     -925.408966     -925.408966  0.000226 -1.169257  0.000807
   scf:    8     -925.408966     -925.408966     -925.408966  0.000029 -1.169169  0.000412

SCF Convergence by DM+H criterion
max |DM_out - DM_in|         :     0.0000289077
max |H_out - H_in|      (eV) :     0.0004124638
SCF cycle converged after 8 iterations

Using DM_out to compute the final energy and forces
No. of atoms with KB's overlaping orbs in proc 0. Max # of overlaps:       6      11

siesta: E_KS(eV) =             -925.4090

siesta: Atomic forces (eV/Ang):
     1   -0.000000    2.621519    0.381657
     2   -1.562650   -1.296427   -0.061310
     3    1.562650   -1.296427   -0.061310
     4   -0.000000   -2.606491   -1.120160
     5   -1.558799    1.293544    0.080452
     6    1.558799    1.293544    0.080452
----------------------------------------
   Tot   -0.000000    0.009263   -0.700217
----------------------------------------
   Max    2.621519
   Res    1.323683    sqrt( Sum f_i^2 / 3N )
----------------------------------------
   Max    2.621519    constrained

Stress tensor Voigt[x,y,z,yz,xz,xy] (kbar):        7.74        7.36        0.07        0.01        0.00        0.00
(Free)E + p*V (eV/cell)     -927.8094
Target enthalpy (eV/cell)     -877.9256

siesta: Stress tensor (static) (eV/Ang**3):
         0.007250   -0.000000   -0.000000
         0.000000    0.005172    0.000289
         0.000000    0.000290    0.000193

siesta: Pressure (static):         -6.73771137  kBar

siesta: Stress tensor (total) (eV/Ang**3):
         0.004828   -0.000000   -0.000000
         0.000000    0.004597    0.000007
         0.000000    0.000007    0.000041

siesta: Pressure (total):         -5.05535385  kBar

siesta: Temp_ion =    1359.815 K

                     ====================================
                        Begin MD step =      8
                     ====================================

outcoor: Atomic coordinates (Ang):                          
    0.00000000   -0.02763036   -0.00288027   1       1  O
    0.93463242    0.76808835    0.11797930   2       2  H
   -0.93463242    0.76808835    0.11797930   2       3  H
   -0.00000000    0.02779087    2.94594174   1       4  O
    0.93430326   -0.76515715    2.80889625   2       5  H
   -0.93430326   -0.76515715    2.80889625   2       6  H

outcell: Unit cell vectors (Ang):
        9.844366   -0.000000    0.000000
        0.000000    9.843659    0.000913
        0.000000    0.001141    7.800882

outcell: Cell vector modules (Ang)   :    9.844366    9.843659    7.800882
outcell: Cell angles (23,13,12) (deg):     89.9863     90.0000     90.0000
outcell: Cell volume (Ang**3)        :    755.9412
Gamma-point calculation with multiply-connected orbital pairs
Folding of H and S implicitly performed
<dSpData1D:S at geom step 8
  <sparsity:sparsity for geom step 8
    nrows_g=12 nrows=12 sparsity=1.0000 nnzs=144, refcount: 7>
  <dData1D:(new from dSpData1D) n=144, refcount: 1>
refcount: 1>
new_DM -- step:     8
Re-using DM from previous geometries...
Number of DMs in history: 1
 DM extrapolation coefficients: 
1   1.00000
New DM after history re-use:
<dSpData2D:SpM extrapolated using coords
  <sparsity:sparsity for geom step 8
    nrows_g=12 nrows=12 sparsity=1.0000 nnzs=144, refcount: 9>
  <dData2D:(temp array for extrapolation) n=144 m=1, refcount: 1>
refcount: 1>
Note: For starting DM, Qtot, Tr[D*S] =         16.00000000         15.96876692
No. of atoms with KB's overlaping orbs in proc 0. Max # of overlaps:       6      11

InitMesh: MESH = 60 x 60 x 48 = 172800
InitMesh: Mesh cutoff (required, used) =   100.000   102.667 Ry
New grid distribution [1]: sub = 2

        iscf     Eharris(eV)        E_KS(eV)     FreeEng(eV)     dDmax    Ef(eV) dHmax(eV)
   scf:    1     -925.218461     -924.826134     -924.826134  0.073432 -1.522143  1.146174
   scf:    2     -923.529324     -924.493856     -924.493856  0.151093 -2.067015  2.616587
   scf:    3     -925.063430     -924.923088     -924.923088  0.100769 -1.687740  0.089504
   scf:    4     -924.923563     -924.923344     -924.923344  0.001125 -1.676509  0.065544
   scf:    5     -924.923733     -924.923548     -924.923548  0.002200 -1.665727  0.025878
   scf:    6     -924.923615     -924.923585     -924.923585  0.001383 -1.660072  0.001610
   scf:    7     -924.923586     -924.923586     -924.923586  0.000106 -1.659701  0.000492
   scf:    8     -924.923586     -924.923586     -924.923586  0.000013 -1.659635  0.000339

SCF Convergence by DM+H criterion
max |DM_out - DM_in|         :     0.0000131635
max |H_out - H_in|      (eV) :     0.0003389396
SCF cycle converged after 8 iterations

Using DM_out to compute the final energy and forces
No. of atoms with KB's overlaping orbs in proc 0. Max # of overlaps:       6      11

siesta: E_KS(eV) =             -924.9236

siesta: Atomic forces (eV/Ang):
     1   -0.000000    3.293839    0.529029
     2   -2.316602   -1.633258   -0.136629
     3    2.316602   -1.633258   -0.136629
     4    0.000000   -3.274773   -1.225020
     5   -2.314499    1.627926    0.161531
     6    2.314499    1.627926    0.161531
----------------------------------------
   Tot   -0.000000    0.008403   -0.646187
----------------------------------------
   Max    3.293839
   Res    1.756354    sqrt( Sum f_i^2 / 3N )
----------------------------------------
   Max    3.293839    constrained

Stress tensor Voigt[x,y,z,yz,xz,xy] (kbar):       15.33       10.33        0.09        0.68        0.00       -0.00
(Free)E + p*V (eV/cell)     -928.9731
Target enthalpy (eV/cell)     -877.7414

siesta: Stress tensor (static) (eV/Ang**3):
         0.011436   -0.000000   -0.000000
        -0.000000    0.006745    0.000624
         0.000000    0.000624    0.000207

siesta: Pressure (static):         -9.81992033  kBar

siesta: Stress tensor (total) (eV/Ang**3):
         0.009566   -0.000000   -0.000000
        -0.000000    0.006448    0.000427
         0.000000    0.000427    0.000056

siesta: Pressure (total):         -8.58264055  kBar

siesta: Temp_ion =     602.818 K

                     ====================================
                        Begin MD step =      9
                     ====================================

outcoor: Atomic coordinates (Ang):                          
    0.00000000   -0.02772928   -0.00286850   1       1  O
    0.96103216    0.76656817    0.13203516   2       2  H
   -0.96103216    0.76656817    0.13203516   2       3  H
   -0.00000000    0.02793819    2.93546215   1       4  O
    0.96079504   -0.76324008    2.78551823   2       5  H
   -0.96079504   -0.76324008    2.78551823   2       6  H

outcell: Unit cell vectors (Ang):
        9.825835   -0.000000    0.000000
       -0.000000    9.824854    0.001027
        0.000000    0.001284    7.777157

outcell: Cell vector modules (Ang)   :    9.825835    9.824854    7.777157
outcell: Cell angles (23,13,12) (deg):     89.9845     90.0000     90.0000
outcell: Cell volume (Ang**3)        :    750.7864
Gamma-point calculation with multiply-connected orbital pairs
Folding of H and S implicitly performed
<dSpData1D:S at geom step 9
  <sparsity:sparsity for geom step 9
    nrows_g=12 nrows=12 sparsity=1.0000 nnzs=144, refcount: 7>
  <dData1D:(new from dSpData1D) n=144, refcount: 1>
refcount: 1>
new_DM -- step:     9
Re-using DM from previous geometries...
Number of DMs in history: 1
 DM extrapolation coefficients: 
1   1.00000
New DM after history re-use:
<dSpData2D:SpM extrapolated using coords
  <sparsity:sparsity for geom step 9
    nrows_g=12 nrows=12 sparsity=1.0000 nnzs=144, refcount: 9>
  <dData2D:(temp array for extrapolation) n=144 m=1, refcount: 1>
refcount: 1>
No. of atoms with KB's overlaping orbs in proc 0. Max # of overlaps:       6      11

InitMesh: MESH = 60 x 60 x 48 = 172800
InitMesh: Mesh cutoff (required, used) =   100.000   103.054 Ry
New grid distribution [1]: sub = 2

        iscf     Eharris(eV)        E_KS(eV)     FreeEng(eV)     dDmax    Ef(eV) dHmax(eV)
   scf:    1     -924.855046     -924.651187     -924.651187  0.021848 -1.780176  0.427215
   scf:    2     -924.447313     -924.597762     -924.597762  0.056938 -1.987175  1.029359
   scf:    3     -924.685365     -924.664840     -924.664840  0.039495 -1.839761  0.039717
   scf:    4     -924.664958     -924.664901     -924.664901  0.000573 -1.836511  0.028117
   scf:    5     -924.665002     -924.664956     -924.664956  0.001216 -1.830932  0.003543
   scf:    6     -924.664958     -924.664957     -924.664957  0.000170 -1.830359  0.000611
   scf:    7     -924.664957     -924.664957     -924.664957  0.000017 -1.830287  0.000441

SCF Convergence by DM+H criterion
max |DM_out - DM_in|         :     0.0000173789
max |H_out - H_in|      (eV) :     0.0004409760
SCF cycle converged after 7 iterations

Using DM_out to compute the final energy and forces
No. of atoms with KB's overlaping orbs in proc 0. Max # of overlaps:       6      11

siesta: E_KS(eV) =             -924.6650

siesta: Atomic forces (eV/Ang):
     1   -0.000000    3.396415    0.593958
     2   -2.624153   -1.686092   -0.173406
     3    2.624153   -1.686092   -0.173406
     4   -0.000000   -3.373741   -1.224341
     5   -2.623099    1.678417    0.197431
     6    2.623099    1.678417    0.197431
----------------------------------------
   Tot   -0.000000    0.007324   -0.582334
----------------------------------------
   Max    3.396415
   Res    1.882098    sqrt( Sum f_i^2 / 3N )
----------------------------------------
   Max    3.396415    constrained

Stress tensor Voigt[x,y,z,yz,xz,xy] (kbar):       20.12       11.15        0.15        1.15        0.00       -0.00
(Free)E + p*V (eV/cell)     -929.5735
Target enthalpy (eV/cell)     -877.8046

siesta: Stress tensor (static) (eV/Ang**3):
         0.013422   -0.000000   -0.000000
        -0.000000    0.006997    0.000776
         0.000000    0.000777    0.000229

siesta: Pressure (static):        -11.02691885  kBar

siesta: Stress tensor (total) (eV/Ang**3):
         0.012560   -0.000000   -0.000000
        -0.000000    0.006959    0.000714
         0.000000    0.000715    0.000095

siesta: Pressure (total):        -10.47489708  kBar

siesta: Temp_ion =     168.274 K

                     ====================================
                        Begin MD step =     10
                     ====================================

outcoor: Atomic coordinates (Ang):                          
   -0.00000000   -0.02578348   -0.00249947   1       1  O
    0.96204553    0.74887254    0.14429193   2       2  H
   -0.96204553    0.74887254    0.14429193   2       3  H
   -0.00000000    0.02604822    2.92367806   1       4  O
    0.96190977   -0.74523022    2.76359350   2       5  H
   -0.96190977   -0.74523022    2.76359350   2       6  H

outcell: Unit cell vectors (Ang):
        9.805861   -0.000000    0.000000
       -0.000000    9.804713    0.001128
        0.000000    0.001410    7.751890

outcell: Cell vector modules (Ang)   :    9.805861    9.804713    7.751890
outcell: Cell angles (23,13,12) (deg):     89.9830     90.0000     90.0000
outcell: Cell volume (Ang**3)        :    745.2951
Gamma-point calculation with multiply-connected orbital pairs
Folding of H and S implicitly performed
<dSpData1D:S at geom step 10
  <sparsity:sparsity for geom step 10
    nrows_g=12 nrows=12 sparsity=1.0000 nnzs=144, refcount: 7>
  <dData1D:(new from dSpData1D) n=144, refcount: 1>
refcount: 1>
new_DM -- step:    10
Re-using DM from previous geometries...
Number of DMs in history: 1
 DM extrapolation coefficients: 
1   1.00000
New DM after history re-use:
<dSpData2D:SpM extrapolated using coords
  <sparsity:sparsity for geom step 10
    nrows_g=12 nrows=12 sparsity=1.0000 nnzs=144, refcount: 9>
  <dData2D:(temp array for extrapolation) n=144 m=1, refcount: 1>
refcount: 1>
No. of atoms with KB's overlaping orbs in proc 0. Max # of overlaps:       6      11

InitMesh: MESH = 60 x 60 x 48 = 172800
InitMesh: Mesh cutoff (required, used) =   100.000   103.474 Ry
New grid distribution [1]: sub = 2

        iscf     Eharris(eV)        E_KS(eV)     FreeEng(eV)     dDmax    Ef(eV) dHmax(eV)
   scf:    1     -924.592690     -924.764350     -924.764350  0.041741 -1.726546  0.390320
   scf:    2     -924.613070     -924.724868     -924.724868  0.054705 -1.541072  0.889541
   scf:    3     -924.789589     -924.774697     -924.774697  0.037449 -1.673846  0.024703
   scf:    4     -924.774793     -924.774746     -924.774746  0.000662 -1.676131  0.017087
   scf:    5     -924.774821     -924.774788     -924.774788  0.001270 -1.682105  0.002347
   scf:    6     -924.774788     -924.774788     -924.774788  0.000051 -1.682604  0.000840

SCF Convergence by DM+H criterion
max |DM_out - DM_in|         :     0.0000514951
max |H_out - H_in|      (eV) :     0.0008399458
SCF cycle converged after 6 iterations

Using DM_out to compute the final energy and forces
No. of atoms with KB's overlaping orbs in proc 0. Max # of overlaps:       6      11

siesta: E_KS(eV) =             -924.7748

siesta: Atomic forces (eV/Ang):
     1   -0.000000    3.087723    0.578448
     2   -2.608765   -1.534854   -0.171635
     3    2.608765   -1.534854   -0.171635
     4   -0.000000   -3.061148   -1.125415
     5   -2.607957    1.524756    0.190272
     6    2.607957    1.524756    0.190272
----------------------------------------
   Tot   -0.000000    0.006379   -0.509695
----------------------------------------
   Max    3.087723
   Res    1.782829    sqrt( Sum f_i^2 / 3N )
----------------------------------------
   Max    3.087723    constrained

Stress tensor Voigt[x,y,z,yz,xz,xy] (kbar):       21.35        9.90        0.25        1.28        0.00        0.00
(Free)E + p*V (eV/cell)     -929.6595
Target enthalpy (eV/cell)     -878.2571

siesta: Stress tensor (static) (eV/Ang**3):
         0.013461    0.000000    0.000000
         0.000000    0.006223    0.000740
         0.000000    0.000742    0.000269

siesta: Pressure (static):        -10.65579339  kBar

siesta: Stress tensor (total) (eV/Ang**3):
         0.013325    0.000000    0.000000
         0.000000    0.006181    0.000799
         0.000000    0.000801    0.000156

siesta: Pressure (total):        -10.50071302  kBar

siesta: Temp_ion =     282.804 K

outcell: Unit cell vectors (Ang):
        9.805861   -0.000000    0.000000
       -0.000000    9.804713    0.001128
        0.000000    0.001410    7.751890

outcell: Cell vector modules (Ang)   :    9.805861    9.804713    7.751890
outcell: Cell angles (23,13,12) (deg):     89.9830     90.0000     90.0000
outcell: Cell volume (Ang**3)        :    745.2951

siesta: Program's energy decomposition (eV):
siesta: Ebs     =      -179.755179
siesta: Eions   =      1621.026762
siesta: Ena     =       348.672695
siesta: Ekin    =       673.068359
siesta: Enl     =      -108.590457
siesta: Eso     =         0.000000
siesta: Edftu   =         0.000000
siesta: DEna    =        -3.563873
siesta: DUscf   =         2.916293
siesta: DUext   =         0.000000
siesta: Ex      =      -191.641648
siesta: Ec      =       -24.609394
siesta: Exc     =      -216.251043
siesta: EbV     =         0.000000
siesta: eta*DQ  =         0.000000
siesta: Emadel  =         0.000000
siesta: Emeta   =         0.000000
siesta: Emolmec =         0.000000
siesta: Ekinion =         0.182777
siesta: Eharris =      -924.592012
siesta: Etot    =      -924.592012
siesta: FreeEng =      -924.592012

siesta: Final energy (eV):
siesta:  Band Struct. =    -179.755179
siesta:       Kinetic =     673.068359
siesta:       Hartree =     898.307896
siesta:         Edftu =       0.000000
siesta:       Eso     =       0.000000
siesta:    Ext. field =       0.000000
siesta:         Exch. =    -191.641648
siesta:         Corr. =     -24.609394
siesta:     Bulk bias =       0.000000
siesta:   Exch.-corr. =    -216.251043
siesta:  Ion-electron =   -2366.156391
siesta:       Ion-ion =      86.256391
siesta:       Ekinion =       0.182777
siesta: D3 dispersion =       0.000000
siesta:         Total =    -924.592012
siesta:         Fermi =      -1.682604

siesta: Atomic forces (eV/Ang):
siesta:      1   -0.000000    3.087723    0.578448
siesta:      2   -2.608765   -1.534854   -0.171635
siesta:      3    2.608765   -1.534854   -0.171635
siesta:      4   -0.000000   -3.061148   -1.125415
siesta:      5   -2.607957    1.524756    0.190272
siesta:      6    2.607957    1.524756    0.190272
siesta: ----------------------------------------
siesta:    Tot   -0.000000    0.006379   -0.509695

siesta: Stress tensor (static) (eV/Ang**3):
siesta:     0.013461    0.000000    0.000000
siesta:     0.000000    0.006223    0.000740
siesta:     0.000000    0.000742    0.000269

siesta: Cell volume =        745.295065 Ang**3

siesta: Pressure (static):
siesta:                Solid            Molecule  Units
siesta:          -0.00007244          0.00000704  Ry/Bohr**3
siesta:          -0.00665082          0.00064605  eV/Ang**3
siesta:         -10.65579339          1.03508673  kBar
(Free)E+ p_basis*V_orbitals  =        -924.124774
(Free)Eharris+ p_basis*V_orbitals  =        -924.124774

siesta: Electric dipole (a.u.)  =   -0.000000    0.002724   -0.000000
siesta: Electric dipole (Debye) =   -0.000000    0.006923   -0.000001

cite: Please see "npr.bib" for an exhaustive BiBTeX file.
cite: Please clearly indicate Siesta version in published work: 5.0.0-alpha-123-gfb8fd7d02
cite: This calculation has made use of the following articles
cite: which are encouraged to be cited in a published work.
        Primary SIESTA paper
          DOI: www.doi.org/10.1088/0953-8984/14/11/302


timer: Elapsed wall time (sec) =       1.664
timer: CPU execution times (sec):

Routine            Calls   Time/call    Tot.time        %
siesta                 1       1.663       1.663   100.00
Setup                  1       0.056       0.056     3.39
bands                  1       0.000       0.000     0.00
KSV_init               1       0.000       0.000     0.00
IterGeom              10       0.161       1.607    96.59
geom_init             10       0.031       0.310    18.65
state_init            10       0.000       0.005     0.29
hsparse               10       0.000       0.000     0.02
overlap               10       0.000       0.002     0.14
Setup_H0              10       0.017       0.172    10.37
naefs                 20       0.000       0.001     0.04
MolMec                20       0.000       0.000     0.00
kinefsm               20       0.000       0.002     0.14
nlefsm                20       0.001       0.015     0.88
DHSCF_Init            10       0.016       0.156     9.39
DHSCF1                10       0.002       0.025     1.49
INITMESH              10       0.000       0.000     0.00
DHSCF2                10       0.013       0.131     7.90
REMESH                10       0.001       0.005     0.31
REORD                286       0.000       0.033     1.99
PHION                 10       0.005       0.046     2.74
COMM_BSC             442       0.000       0.041     2.49
POISON               113       0.005       0.534    32.09
fft                  226       0.002       0.380    22.82
setup_H               93       0.012       1.148    69.04
DHSCF                103       0.014       1.405    84.45
DHSCF3               103       0.012       1.260    75.76
rhoofd               103       0.001       0.058     3.51
XC                   103       0.005       0.480    28.87
GXC-CellXC           103       0.004       0.436    26.18
gridxc@cellXC        103       0.004       0.435    26.16
vmat                 103       0.000       0.050     3.03
IterSCF               83       0.012       1.024    61.58
compute_dm            83       0.000       0.004     0.23
diagon                83       0.000       0.004     0.22
r-eigvec              83       0.000       0.003     0.18
r-buildHS             83       0.000       0.000     0.00
rdiag                 83       0.000       0.003     0.17
rdiag1                83       0.000       0.000     0.02
rdiag2                83       0.000       0.000     0.02
rdiag3                83       0.000       0.001     0.09
rdiag4                83       0.000       0.000     0.02
r-buildD              83       0.000       0.000     0.02
MIXER                 73       0.000       0.001     0.03
PostSCF               10       0.027       0.268    16.13
DHSCF4                10       0.014       0.145     8.69
dfscf                 10       0.010       0.101     6.08
overfsm               10       0.000       0.000     0.02
state_analysis        10       0.000       0.001     0.07
siesta_move           10       0.000       0.002     0.11
Analysis               1       0.000       0.000     0.01
optical                1       0.000       0.000     0.00
  

>> End of run:  28-SEP-2023  15:38:03
Job completed
