Siesta Version  : 5.0.0-alpha-123-gfb8fd7d02
Architecture    : ----
Compiler version: GNU-11.4.0
Compiler flags  : -fallow-argument-mismatch;-O3 -march=native
PP flags        : ----
Libraries       : ----
Parallelisations: none
GEMM3M support
NetCDF support
NetCDF-4 support
Lua support

Runtime information:
* Directory : /home/fnpedron/Siesta/siesta-dev/Tests/09.MolecularDynamics/work/pr
* Running in serial mode.
>> Start of run:  28-SEP-2023  15:37:33

                           *********************** 
                           *  WELCOME TO SIESTA  * 
                           *********************** 

reinit: Reading from standard input
reinit: Dumping input in INPUT_TMP.47505
************************** Dump of input data file ****************************
%include ../../basejob.fdf
SystemLabel          pr
MD.TypeOfRun          ParrinelloRahman
MD.TargetPressure     10.0 GPa
MD.InitialTemperature 100 K
MD.TargetTemperature  600 K
************************** End of input data file *****************************

reinit: -----------------------------------------------------------------------
reinit: System Name: Water molecules MD
reinit: -----------------------------------------------------------------------
reinit: System Label: pr
reinit: -----------------------------------------------------------------------

initatom: Reading input for the pseudopotentials and atomic orbitals ----------
Species number:   1 Atomic number:    8 Label: O
Species number:   2 Atomic number:    1 Label: H


---- Processing specs for species: O
Ground state valence configuration:   2s02  2p04
Reading pseudopotential information in formatted form from:
  /home/fnpedron/Siesta/siesta-dev/Tests/Pseudos/O.psf

---- Processing specs for species: H
Ground state valence configuration:   1s01
Reading pseudopotential information in formatted form from:
  /home/fnpedron/Siesta/siesta-dev/Tests/Pseudos/H.psf

---- Pseudopotential check for O 

Pseudized shells:
2s( 2.00) rc: 1.14
2p( 4.00) rc: 1.14
3d( 0.00) rc: 1.14
4f( 0.00) rc: 1.14
Valence configuration for ps generation: (assumed as above)

---- Pseudopotential check for H 

Pseudized shells:
1s( 1.00) rc: 1.25
2p( 0.00) rc: 1.25
3d( 0.00) rc: 1.25
4f( 0.00) rc: 1.25
Valence configuration for ps generation: (assumed as above)
For O, standard SIESTA heuristics set lmxkb to 2
 (one more than the basis l, including polarization orbitals).
Use PS.lmax or PS.KBprojectors blocks to override.
For H, standard SIESTA heuristics set lmxkb to 1
 (one more than the basis l, including polarization orbitals).
Use PS.lmax or PS.KBprojectors blocks to override.

<basis_specs>
===============================================================================
O                    Z=   8    Mass=  15.999        Charge= 0.17977+309
Lmxo=1 Lmxkb= 2    BasisType=split      Semic=F
L=0  Nsemic=0  Cnfigmx=2
          i=1  nzeta=1  polorb=0  (2s)
            splnorm:   0.15000    
               vcte:    40.000    
               rinn:  -0.90000    
               qcoe:    0.0000    
               qyuk:    0.0000    
               qwid:   0.10000E-01
                rcs:    0.0000    
            lambdas:    1.0000    
L=1  Nsemic=0  Cnfigmx=2
          i=1  nzeta=1  polorb=0  (2p)
            splnorm:   0.15000    
               vcte:    40.000    
               rinn:  -0.90000    
               qcoe:    0.0000    
               qyuk:    0.0000    
               qwid:   0.10000E-01
                rcs:    0.0000    
            lambdas:    1.0000    
-------------------------------------------------------------------------------
L=0  Nkbl=1  erefs: 0.17977+309
L=1  Nkbl=1  erefs: 0.17977+309
L=2  Nkbl=1  erefs: 0.17977+309
===============================================================================
</basis_specs>

Using PAO.SplitTailNorm
atom: Called for O                     (Z =   8)
Maximum radius (at nrval) set to   50.00000 8518

read_vps: Pseudopotential generation method:
read_vps: ATM3      Troullier-Martins                       
Valence charge in pseudo generation:    6.00000

xc_check: Exchange-correlation functional:
xc_check: Ceperley-Alder
V l=0 = -2*Zval/r beyond r=  1.1366
V l=1 = -2*Zval/r beyond r=  1.1332
V l=2 = -2*Zval/r beyond r=  1.1298
All V_l potentials equal beyond r=  1.1355
This should be close to max(r_c) in ps generation
All pots = -2*Zval/r beyond r=  1.1366
Using small-core scheme (local charge) for Vlocal

VLOCAL_FROM_CHLOCAL: 99.0% of the norm of Vloc inside     33.667 Ry
VLOCAL_FROM_CHLOCAL: 99.9% of the norm of Vloc inside     76.727 Ry
atom: Maximum radius for chlocal:    1.37241
atom: Maximum radius for r*vlocal+2*Zval:    1.25469

KBgen: Kleinman-Bylander projectors: 
GHOST: No ghost state for L =  0
   l= 0   rc=  1.293209   el= -1.742414   Ekb=  9.076872   kbcos=  0.325320
GHOST: No ghost state for L =  1
   l= 1   rc=  1.284119   el= -0.676589   Ekb= -8.194485   kbcos= -0.396010
GHOST: No ghost state for L =  2
   l= 2   rc=  1.433152   el=  0.013307   Ekb= -2.071665   kbcos= -0.003690

KBgen: Total number of Kleinman-Bylander projectors:   9
atom: -------------------------------------------------------------------------

atom: SANKEY-TYPE ORBITALS:

SPLIT: Orbitals with angular momentum L= 0

SPLIT: Basis orbitals for state 2s

SPLIT: PAO cut-off radius determined from an
SPLIT: energy shift=  0.010000 Ry
Split based on tail norm

   izeta = 1
                 lambda =    1.000000
                     rc =    3.560943
                 energy =   -1.731321
                kinetic =    1.587329
    potential(screened) =   -3.318651
       potential(ionic) =  -11.260325

SPLIT: Orbitals with angular momentum L= 1

SPLIT: Basis orbitals for state 2p

SPLIT: PAO cut-off radius determined from an
SPLIT: energy shift=  0.010000 Ry
Split based on tail norm

   izeta = 1
                 lambda =    1.000000
                     rc =    4.290924
                 energy =   -0.665565
                kinetic =    4.934810
    potential(screened) =   -5.600376
       potential(ionic) =  -13.346429
atom: Total number of Sankey-type orbitals:  4

atm_pop: Valence configuration (for local Pseudopot. screening):
 2s( 2.00)                                                            
 2p( 4.00)                                                            
Vna: chval, zval:    6.00000   6.00000

Vna:  Cut-off radius for the neutral-atom potential:   4.290924

atom: _________________________________________________________________________

<basis_specs>
===============================================================================
H                    Z=   1    Mass=  1.0080        Charge= 0.17977+309
Lmxo=0 Lmxkb= 1    BasisType=split      Semic=F
L=0  Nsemic=0  Cnfigmx=1
          i=1  nzeta=1  polorb=0  (1s)
            splnorm:   0.15000    
               vcte:    40.000    
               rinn:  -0.90000    
               qcoe:    0.0000    
               qyuk:    0.0000    
               qwid:   0.10000E-01
                rcs:    0.0000    
            lambdas:    1.0000    
-------------------------------------------------------------------------------
L=0  Nkbl=1  erefs: 0.17977+309
L=1  Nkbl=1  erefs: 0.17977+309
===============================================================================
</basis_specs>

Using PAO.SplitTailNorm
atom: Called for H                     (Z =   1)
Maximum radius (at nrval) set to   50.00000 8518

read_vps: Pseudopotential generation method:
read_vps: ATM3      Troullier-Martins                       
Valence charge in pseudo generation:    1.00000

xc_check: Exchange-correlation functional:
xc_check: Ceperley-Alder
V l=0 = -2*Zval/r beyond r=  1.2384
V l=1 = -2*Zval/r beyond r=  1.2321
All V_l potentials equal beyond r=  1.2371
This should be close to max(r_c) in ps generation
All pots = -2*Zval/r beyond r=  1.2384
Using small-core scheme (local charge) for Vlocal

VLOCAL_FROM_CHLOCAL: 99.0% of the norm of Vloc inside     28.363 Ry
VLOCAL_FROM_CHLOCAL: 99.9% of the norm of Vloc inside     64.639 Ry
atom: Maximum radius for chlocal:    1.44620
atom: Maximum radius for r*vlocal+2*Zval:    1.31026

KBgen: Kleinman-Bylander projectors: 
GHOST: No ghost state for L =  0
   l= 0   rc=  1.364142   el= -0.467325   Ekb= -2.009475   kbcos= -0.336680
GHOST: No ghost state for L =  1
   l= 1   rc=  1.430269   el=  0.007562   Ekb= -0.503817   kbcos= -0.022554

KBgen: Total number of Kleinman-Bylander projectors:   4
atom: -------------------------------------------------------------------------

atom: SANKEY-TYPE ORBITALS:

SPLIT: Orbitals with angular momentum L= 0

SPLIT: Basis orbitals for state 1s

SPLIT: PAO cut-off radius determined from an
SPLIT: energy shift=  0.010000 Ry
Split based on tail norm

   izeta = 1
                 lambda =    1.000000
                     rc =    5.285354
                 energy =   -0.456120
                kinetic =    0.900445
    potential(screened) =   -1.356565
       potential(ionic) =   -1.890080
atom: Total number of Sankey-type orbitals:  1

atm_pop: Valence configuration (for local Pseudopot. screening):
 1s( 1.00)                                                            
Vna: chval, zval:    1.00000   1.00000

Vna:  Cut-off radius for the neutral-atom potential:   5.285354

atom: _________________________________________________________________________

prinput: Basis input 

PAO.BasisType split     

%block ChemicalSpeciesLabel
    1    8 O                       # Species index, atomic number, species label
    2    1 H                       # Species index, atomic number, species label
%endblock ChemicalSpeciesLabel

%block PAO.Basis                 # Define Basis set
# WARNING: This information might be incomplete!
O                     2                    # Species label, number of l-shells
 n=2   0   1                         # n, l, Nzeta 
   3.561   
   1.000   
 n=2   1   1                         # n, l, Nzeta 
   4.291   
   1.000   
H                     1                    # Species label, number of l-shells
 n=1   0   1                         # n, l, Nzeta 
   5.285   
   1.000   
%endblock PAO.Basis

prinput: ----------------------------------------------------------------------

Dumping basis to NetCDF file O.ion.nc
Dumping basis to NetCDF file H.ion.nc
coor:   Atomic-coordinates input format  =     Cartesian coordinates
coor:                                          (in Angstroms)

siesta: WARNING: XV file not found

siesta: Atomic coordinates (Bohr) and species
siesta:      0.00000   0.00000   0.00000  1        1
siesta:      1.43052   1.10738   0.00000  2        2
siesta:     -1.43052   1.10738   0.00000  2        3
siesta:      0.00000   0.00000   5.66918  1        4
siesta:      1.43052  -1.10738   5.66918  2        5
siesta:     -1.43052  -1.10738   5.66918  2        6

siesta: System type = chain     

initatomlists: Number of atoms, orbitals, and projectors:      6    12    34

siesta: ******************** Simulation parameters ****************************
siesta:
siesta: The following are some of the parameters of the simulation.
siesta: A complete list of the parameters used, including default values,
siesta: can be found in file out.fdf
siesta:
redata: Spin configuration                          = none
redata: Number of spin components                   = 1
redata: Time-Reversal Symmetry                      = T
redata: Spin spiral                                 = F
redata: Long output                                 =   F
redata: Number of Atomic Species                    =        2
redata: Charge density info will appear in .RHO file
redata: Write Mulliken Pop.                         = NO
redata: Matel table size (NRTAB)                    =     1024
redata: Mesh Cutoff                                 =   100.0000 Ry
redata: Net charge of the system                    =     0.0000 |e|
redata: Min. number of SCF Iter                     =        0
redata: Max. number of SCF Iter                     =     1000
redata: SCF convergence failure will abort job
redata: SCF mix quantity                            = Hamiltonian
redata: Mix DM or H after convergence               =   F
redata: Recompute H after scf cycle                 =   F
redata: Mix DM in first SCF step                    =   T
redata: Write Pulay info on disk                    =   F
redata: New DM Occupancy tolerance                  = 0.000000000001
redata: No kicks to SCF
redata: DM Mixing Weight for Kicks                  =     0.5000
redata: Require Harris convergence for SCF          =   F
redata: Harris energy tolerance for SCF             =     0.000100 eV
redata: Require DM convergence for SCF              =   T
redata: DM tolerance for SCF                        =     0.000100
redata: Require EDM convergence for SCF             =   F
redata: EDM tolerance for SCF                       =     0.001000 eV
redata: Require H convergence for SCF               =   T
redata: Hamiltonian tolerance for SCF               =     0.001000 eV
redata: Require (free) Energy convergence for SCF   =   F
redata: (free) Energy tolerance for SCF             =     0.000100 eV
redata: Using DFT-D3 dispersion                     =   F
redata: Using Saved Data (generic)                  =   F
redata: Use continuation files for DM               =   F
redata: Neglect nonoverlap interactions             =   F
redata: Method of Calculation                       = Diagonalization
redata: Electronic Temperature                      =   299.9863 K
redata: Fix the spin of the system                  =   F
redata: Max. number of TDED Iter                    =        1
redata: Number of TDED substeps                     =        3
redata: Dynamics option                             = Parrinello-Rahman MD run
redata: Initial MD time step                        =        1
redata:   Final MD time step                        =       10
redata: Length of MD time step                      =     1.0000 fs
redata: Initial Temperature of MD run               =   100.0000 K
redata: Perform a MD quench                         =   F
redata: Parrinello-Rahman mass                      =  1360.5693 eV*fs**2
redata: Target Pressure                             =     0.0624 eV/Ang**3
mix.SCF: Pulay mixing                            = Pulay
mix.SCF:    Variant                              = stable
mix.SCF:    History steps                        = 2
mix.SCF:    Linear mixing weight                 =     0.250000
mix.SCF:    Mixing weight                        =     0.250000
mix.SCF:    SVD condition                        = 0.1000E-07
redata: Save all siesta data in one NC              =   F
redata: ***********************************************************************

%block SCF.Mixers
  Pulay
%endblock SCF.Mixers

%block SCF.Mixer.Pulay
  # Mixing method
  method pulay
  variant stable

  # Mixing options
  weight 0.2500
  weight.linear 0.2500
  history 2
%endblock SCF.Mixer.Pulay

Size of DM history Fstack: 1
Total number of electrons:    16.000000
Total ionic charge:    16.000000

siesta: k-grid: Number of k-points = 1
siesta: k-point is Gamma-only

diag: Algorithm                                     = D&C
diag: Used triangular part                          = Lower
diag: Absolute tolerance                            =  0.100E-15
diag: Orthogonalization factor                      =  0.100E-05
diag: Memory factor                                 =  1.0000


ts: **************************************************************
ts: Save H and S matrices                           =    F
ts: Save DM and EDM matrices                        =    F
ts: Only save the overlap matrix S                  =    F
ts: **************************************************************

************************ Begin: TS CHECKS AND WARNINGS ************************
************************ End: TS CHECKS AND WARNINGS **************************


                     ====================================
                        Begin MD step =      1
                     ====================================

outcoor: Atomic coordinates (Ang):                          
    0.00000000    0.00000000    0.00000000   1       1  O
    0.75700000    0.58600000    0.00000000   2       2  H
   -0.75700000    0.58600000    0.00000000   2       3  H
    0.00000000    0.00000000    3.00000000   1       4  O
    0.75700000   -0.58600000    3.00000000   2       5  H
   -0.75700000   -0.58600000    3.00000000   2       6  H

outcell: Unit cell vectors (Ang):
       10.000000    0.000000    0.000000
        0.000000   10.000000    0.000000
        0.000000    0.000000    8.000000

outcell: Cell vector modules (Ang)   :   10.000000   10.000000    8.000000
outcell: Cell angles (23,13,12) (deg):     90.0000     90.0000     90.0000
outcell: Cell volume (Ang**3)        :    800.0000
Gamma-point calculation with multiply-connected orbital pairs
Folding of H and S implicitly performed
<dSpData1D:S at geom step 1
  <sparsity:sparsity for geom step 1
    nrows_g=12 nrows=12 sparsity=1.0000 nnzs=144, refcount: 7>
  <dData1D:(new from dSpData1D) n=144, refcount: 1>
refcount: 1>
new_DM -- step:     1
Initializing Density Matrix...
DM filled with atomic data:
<dSpData2D:DM initialized from atoms
  <sparsity:sparsity for geom step 1
    nrows_g=12 nrows=12 sparsity=1.0000 nnzs=144, refcount: 8>
  <dData2D:DM n=144 m=1, refcount: 1>
refcount: 1>
No. of atoms with KB's overlaping orbs in proc 0. Max # of overlaps:       6      11

InitMesh: MESH = 64 x 64 x 50 = 204800
InitMesh: Mesh cutoff (required, used) =   100.000   107.960 Ry
New grid distribution [1]: sub = 2

stepf: Fermi-Dirac step function

siesta: Program's energy decomposition (eV):
siesta: Ebs     =      -150.860226
siesta: Eions   =      1621.026762
siesta: Ena     =       348.311589
siesta: Ekin    =       762.029177
siesta: Enl     =      -142.322504
siesta: Eso     =         0.000000
siesta: Edftu   =         0.000000
siesta: DEna    =       -43.394775
siesta: DUscf   =         8.145612
siesta: DUext   =         0.000000
siesta: Ex      =      -208.215598
siesta: Ec      =       -25.484600
siesta: Exc     =      -233.700198
siesta: EbV     =         0.000000
siesta: eta*DQ  =         0.000000
siesta: Emadel  =         0.000000
siesta: Emeta   =         0.000000
siesta: Emolmec =         0.000000
siesta: Ekinion =         0.000000
siesta: Eharris =      -912.757638
siesta: Etot    =      -921.957860
siesta: FreeEng =      -921.957860

        iscf     Eharris(eV)        E_KS(eV)     FreeEng(eV)     dDmax    Ef(eV) dHmax(eV)
   scf:    1     -912.757638     -921.957860     -921.957860  0.733417 -3.359648  7.697499
timer: Routine,Calls,Time,% = IterSCF        1       0.016  12.63
   scf:    2     -925.019859     -923.619429     -923.619429  0.139222 -2.405659  4.176372
   scf:    3     -924.515320     -924.243189     -924.243189  0.153954 -1.356709  0.720183
   scf:    4     -924.257341     -924.250596     -924.250596  0.006996 -1.425281  0.533465
   scf:    5     -924.260059     -924.255895     -924.255895  0.015005 -1.528642  0.167600
   scf:    6     -924.256792     -924.256358     -924.256358  0.004055 -1.533824  0.094733
   scf:    7     -924.256616     -924.256507     -924.256507  0.002845 -1.530644  0.020744
   scf:    8     -924.256536     -924.256523     -924.256523  0.000334 -1.526977  0.014933
   scf:    9     -924.256536     -924.256531     -924.256531  0.000297 -1.523110  0.009254
   scf:   10     -924.256533     -924.256532     -924.256532  0.000152 -1.522419  0.005779
   scf:   11     -924.256533     -924.256533     -924.256533  0.000228 -1.521732  0.001906
   scf:   12     -924.256533     -924.256533     -924.256533  0.000028 -1.521803  0.001144
   scf:   13     -924.256533     -924.256533     -924.256533  0.000017 -1.521890  0.000403

SCF Convergence by DM+H criterion
max |DM_out - DM_in|         :     0.0000168156
max |H_out - H_in|      (eV) :     0.0004032171
SCF cycle converged after 13 iterations

Using DM_out to compute the final energy and forces
No. of atoms with KB's overlaping orbs in proc 0. Max # of overlaps:       6      11

siesta: E_KS(eV) =             -924.2565

siesta: E_KS - E_eggbox =      -924.2565

siesta: Atomic forces (eV/Ang):
     1   -0.000000   -7.298057   -0.083748
     2    4.939654    3.545499    0.122935
     3   -4.939654    3.545499    0.122935
     4   -0.000000    7.275470    0.989242
     5    4.938269   -3.544015   -0.118804
     6   -4.938269   -3.544015   -0.118804
----------------------------------------
   Tot   -0.000000   -0.019620    0.913758
----------------------------------------
   Max    7.298057
   Res    3.764400    sqrt( Sum f_i^2 / 3N )
----------------------------------------
   Max    7.298057    constrained

Stress tensor Voigt[x,y,z,yz,xz,xy] (kbar):      -29.95      -17.06        0.47       -0.61        0.03        0.06
(Free)E + p*V (eV/cell)     -916.5110
Target enthalpy (eV/cell)     -874.3245

siesta: Stress tensor (static) (eV/Ang**3):
        -0.018671   -0.000000    0.000000
        -0.000000   -0.010591   -0.000359
        -0.000000   -0.000359    0.000377

siesta: Pressure (static):         15.42593083  kBar

siesta: Stress tensor (total) (eV/Ang**3):
        -0.018696    0.000036    0.000020
         0.000036   -0.010646   -0.000381
         0.000020   -0.000381    0.000296

siesta: Pressure (total):         15.51222139  kBar

siesta: E_kin PR =      20.515 K

siesta: Temp_ion =     100.012 K

                     ====================================
                        Begin MD step =      2
                     ====================================

outcoor: Atomic coordinates (Ang):                          
    0.00178468   -0.00544896   -0.00084181   1       1  O
    0.77744944    0.60759124   -0.00074197   2       2  H
   -0.77741619    0.59945639   -0.00692950   2       3  H
   -0.00084409    0.00428702    3.00060521   1       4  O
    0.77406664   -0.59429395    2.98773155   2       5  H
   -0.78903175   -0.59435273    3.01941755   2       6  H

outcell: Unit cell vectors (Ang):
        9.999280   -0.000001   -0.000000
       -0.000001    9.999148    0.000006
       -0.000000    0.000008    7.998709

outcell: Cell vector modules (Ang)   :    9.999280    9.999148    7.998709
outcell: Cell angles (23,13,12) (deg):     89.9999     90.0000     90.0000
outcell: Cell volume (Ang**3)        :    799.7452
Gamma-point calculation with multiply-connected orbital pairs
Folding of H and S implicitly performed
<dSpData1D:S at geom step 2
  <sparsity:sparsity for geom step 2
    nrows_g=12 nrows=12 sparsity=1.0000 nnzs=144, refcount: 7>
  <dData1D:(new from dSpData1D) n=144, refcount: 1>
refcount: 1>
new_DM -- step:     2
Re-using DM from previous geometries...
Number of DMs in history: 1
 DM extrapolation coefficients: 
1   1.00000
New DM after history re-use:
<dSpData2D:SpM extrapolated using coords
  <sparsity:sparsity for geom step 2
    nrows_g=12 nrows=12 sparsity=1.0000 nnzs=144, refcount: 9>
  <dData2D:(temp array for extrapolation) n=144 m=1, refcount: 1>
refcount: 1>
No. of atoms with KB's overlaping orbs in proc 0. Max # of overlaps:       6      11

InitMesh: MESH = 64 x 64 x 50 = 204800
InitMesh: Mesh cutoff (required, used) =   100.000   107.995 Ry
New grid distribution [1]: sub = 2

        iscf     Eharris(eV)        E_KS(eV)     FreeEng(eV)     dDmax    Ef(eV) dHmax(eV)
   scf:    1     -925.316851     -924.831692     -924.831692  0.068319 -1.741156  0.626958
   scf:    2     -924.771791     -924.825533     -924.825533  0.050616 -2.080783  0.776171
   scf:    3     -924.862640     -924.851027     -924.851027  0.027491 -1.893343  0.038208
   scf:    4     -924.851068     -924.851048     -924.851048  0.000605 -1.890388  0.028115
   scf:    5     -924.851092     -924.851071     -924.851071  0.001530 -1.884120  0.003529
   scf:    6     -924.851072     -924.851072     -924.851072  0.000140 -1.884013  0.001588
   scf:    7     -924.851072     -924.851072     -924.851072  0.000085 -1.883976  0.000382

SCF Convergence by DM+H criterion
max |DM_out - DM_in|         :     0.0000850985
max |H_out - H_in|      (eV) :     0.0003823484
SCF cycle converged after 7 iterations

Using DM_out to compute the final energy and forces
No. of atoms with KB's overlaping orbs in proc 0. Max # of overlaps:       6      11

siesta: E_KS(eV) =             -924.8511

siesta: Atomic forces (eV/Ang):
     1    0.137506   -5.274907   -0.023870
     2    3.360767    2.542609    0.118507
     3   -3.495016    2.598779    0.092053
     4   -0.523755    5.473078    0.976627
     5    3.746558   -2.891084   -0.182236
     6   -3.225597   -2.445259   -0.030667
----------------------------------------
   Tot    0.000463    0.003216    0.950414
----------------------------------------
   Max    5.473078
   Res    2.734458    sqrt( Sum f_i^2 / 3N )
----------------------------------------
   Max    5.473078    constrained

Stress tensor Voigt[x,y,z,yz,xz,xy] (kbar):      -21.59      -13.07        0.40       -0.55        0.22        0.79
(Free)E + p*V (eV/cell)     -919.1512
Target enthalpy (eV/cell)     -874.9349

siesta: Stress tensor (static) (eV/Ang**3):
        -0.013448    0.000457    0.000120
         0.000458   -0.008101   -0.000323
         0.000120   -0.000323    0.000330

siesta: Pressure (static):         11.33256964  kBar

siesta: Stress tensor (total) (eV/Ang**3):
        -0.013474    0.000493    0.000140
         0.000493   -0.008156   -0.000345
         0.000140   -0.000345    0.000249

siesta: Pressure (total):         11.41887723  kBar

siesta: E_kin PR =     188.013 K

siesta: Temp_ion =     886.934 K

                     ====================================
                        Begin MD step =      3
                     ====================================

outcoor: Atomic coordinates (Ang):                          
    0.00365214   -0.01407844   -0.00169789   1       1  O
    0.83000466    0.65346478   -0.00034962   2       2  H
   -0.83122402    0.63773456   -0.01297617   2       3  H
   -0.00200609    0.01187661    3.00131561   1       4  O
    0.82693072   -0.63020555    2.97323657   2       5  H
   -0.85187672   -0.62605468    3.03805486   2       6  H

outcell: Unit cell vectors (Ang):
        9.997768   -0.000008   -0.000005
       -0.000008    9.997410    0.000018
       -0.000007    0.000022    7.996129

outcell: Cell vector modules (Ang)   :    9.997768    9.997410    7.996129
outcell: Cell angles (23,13,12) (deg):     89.9997     90.0001     90.0001
outcell: Cell volume (Ang**3)        :    799.2274
Gamma-point calculation with multiply-connected orbital pairs
Folding of H and S implicitly performed
<dSpData1D:S at geom step 3
  <sparsity:sparsity for geom step 3
    nrows_g=12 nrows=12 sparsity=1.0000 nnzs=144, refcount: 7>
  <dData1D:(new from dSpData1D) n=144, refcount: 1>
refcount: 1>
new_DM -- step:     3
Re-using DM from previous geometries...
Number of DMs in history: 1
 DM extrapolation coefficients: 
1   1.00000
New DM after history re-use:
<dSpData2D:SpM extrapolated using coords
  <sparsity:sparsity for geom step 3
    nrows_g=12 nrows=12 sparsity=1.0000 nnzs=144, refcount: 9>
  <dData2D:(temp array for extrapolation) n=144 m=1, refcount: 1>
refcount: 1>
Note: For starting DM, Qtot, Tr[D*S] =         16.00000000         15.96595690
No. of atoms with KB's overlaping orbs in proc 0. Max # of overlaps:       6      11

InitMesh: MESH = 64 x 64 x 50 = 204800
InitMesh: Mesh cutoff (required, used) =   100.000   108.064 Ry
New grid distribution [1]: sub = 2

        iscf     Eharris(eV)        E_KS(eV)     FreeEng(eV)     dDmax    Ef(eV) dHmax(eV)
   scf:    1     -926.295738     -925.430346     -925.430346  0.169310 -2.385453  1.722332
   scf:    2     -924.576738     -925.280499     -925.280499  0.161644 -3.334327  2.543755
   scf:    3     -925.736557     -925.600560     -925.600560  0.089926 -2.770293  0.100614
   scf:    4     -925.600870     -925.600728     -925.600728  0.001374 -2.755515  0.075445
   scf:    5     -925.601022     -925.600879     -925.600879  0.002642 -2.741149  0.033093
   scf:    6     -925.600965     -925.600925     -925.600925  0.001767 -2.734824  0.007158
   scf:    7     -925.600932     -925.600929     -925.600929  0.000460 -2.733897  0.002285
   scf:    8     -925.600929     -925.600929     -925.600929  0.000086 -2.733938  0.000823

SCF Convergence by DM+H criterion
max |DM_out - DM_in|         :     0.0000861722
max |H_out - H_in|      (eV) :     0.0008228928
SCF cycle converged after 8 iterations

Using DM_out to compute the final energy and forces
No. of atoms with KB's overlaping orbs in proc 0. Max # of overlaps:       6      11

siesta: E_KS(eV) =             -925.6009

siesta: Atomic forces (eV/Ang):
     1    0.124323   -1.623026    0.005079
     2    0.623724    0.754982    0.103718
     3   -0.740670    0.823976    0.095593
     4   -0.485213    1.975337    0.992393
     5    0.911297   -1.153913   -0.140574
     6   -0.431834   -0.759046   -0.069542
----------------------------------------
   Tot    0.001627    0.018310    0.986666
----------------------------------------
   Max    1.975337
   Res    0.847466    sqrt( Sum f_i^2 / 3N )
----------------------------------------
   Max    1.975337    constrained

Stress tensor Voigt[x,y,z,yz,xz,xy] (kbar):       -5.79       -5.63        0.25       -0.52        0.35        0.72
(Free)E + p*V (eV/cell)     -923.7429
Target enthalpy (eV/cell)     -875.7171

siesta: Stress tensor (static) (eV/Ang**3):
        -0.002795    0.000471    0.000063
         0.000471   -0.002984   -0.000335
         0.000063   -0.000335    0.000239

siesta: Pressure (static):          2.95886360  kBar

siesta: Stress tensor (total) (eV/Ang**3):
        -0.003616    0.000451    0.000219
         0.000451   -0.003515   -0.000327
         0.000219   -0.000327    0.000156

siesta: Pressure (total):          3.72468414  kBar

siesta: E_kin PR =     542.879 K

siesta: Temp_ion =    1964.584 K

                     ====================================
                        Begin MD step =      4
                     ====================================

outcoor: Atomic coordinates (Ang):                          
    0.00559424   -0.02368533   -0.00255062   1       1  O
    0.88845038    0.70650139    0.00103544   2       2  H
   -0.89204263    0.68383904   -0.01810510   2       3  H
   -0.00346279    0.02065895    3.00214135   1       4  O
    0.88843691   -0.67709951    2.95691683   2       5  H
   -0.91877576   -0.66495846    3.05553761   2       6  H

outcell: Unit cell vectors (Ang):
        9.995305   -0.000024   -0.000015
       -0.000024    9.994715    0.000035
       -0.000019    0.000044    7.992262

outcell: Cell vector modules (Ang)   :    9.995305    9.994715    7.992262
outcell: Cell angles (23,13,12) (deg):     89.9995     90.0002     90.0003
outcell: Cell volume (Ang**3)        :    798.4287
Gamma-point calculation with multiply-connected orbital pairs
Folding of H and S implicitly performed
<dSpData1D:S at geom step 4
  <sparsity:sparsity for geom step 4
    nrows_g=12 nrows=12 sparsity=1.0000 nnzs=144, refcount: 7>
  <dData1D:(new from dSpData1D) n=144, refcount: 1>
refcount: 1>
new_DM -- step:     4
Re-using DM from previous geometries...
Number of DMs in history: 1
 DM extrapolation coefficients: 
1   1.00000
New DM after history re-use:
<dSpData2D:SpM extrapolated using coords
  <sparsity:sparsity for geom step 4
    nrows_g=12 nrows=12 sparsity=1.0000 nnzs=144, refcount: 9>
  <dData2D:(temp array for extrapolation) n=144 m=1, refcount: 1>
refcount: 1>
Note: For starting DM, Qtot, Tr[D*S] =         16.00000000         15.94600451
No. of atoms with KB's overlaping orbs in proc 0. Max # of overlaps:       6      11

InitMesh: MESH = 64 x 64 x 50 = 204800
InitMesh: Mesh cutoff (required, used) =   100.000   108.169 Ry
New grid distribution [1]: sub = 2

        iscf     Eharris(eV)        E_KS(eV)     FreeEng(eV)     dDmax    Ef(eV) dHmax(eV)
   scf:    1     -925.771795     -925.210394     -925.210394  0.202993 -3.233231  2.255606
   scf:    2     -922.592144     -924.629043     -924.629043  0.257565 -4.449049  4.101128
   scf:    3     -925.890945     -925.537214     -925.537214  0.153182 -3.669222  0.133231
   scf:    4     -925.538175     -925.537811     -925.537811  0.002750 -3.641377  0.102731
   scf:    5     -925.538415     -925.538120     -925.538120  0.002691 -3.627686  0.060168
   scf:    6     -925.538431     -925.538288     -925.538288  0.003625 -3.612219  0.005168
   scf:    7     -925.538293     -925.538291     -925.538291  0.000318 -3.611488  0.001764
   scf:    8     -925.538291     -925.538291     -925.538291  0.000082 -3.611340  0.000603

SCF Convergence by DM+H criterion
max |DM_out - DM_in|         :     0.0000824542
max |H_out - H_in|      (eV) :     0.0006025934
SCF cycle converged after 8 iterations

Using DM_out to compute the final energy and forces
No. of atoms with KB's overlaping orbs in proc 0. Max # of overlaps:       6      11

siesta: E_KS(eV) =             -925.5383

siesta: Atomic forces (eV/Ang):
     1    0.055595    1.115641    0.027743
     2   -1.289859   -0.589594    0.081558
     3    1.245846   -0.515919    0.112440
     4   -0.260873   -0.654324    0.980858
     5   -1.239341    0.248390   -0.036370
     6    1.490641    0.416051   -0.158158
----------------------------------------
   Tot    0.002008    0.020245    1.008071
----------------------------------------
   Max    1.490641
   Res    0.766480    sqrt( Sum f_i^2 / 3N )
----------------------------------------
   Max    1.490641    constrained

Stress tensor Voigt[x,y,z,yz,xz,xy] (kbar):        6.59        0.35        0.10       -0.57        0.20        0.48
(Free)E + p*V (eV/cell)     -926.7084
Target enthalpy (eV/cell)     -875.7043

siesta: Stress tensor (static) (eV/Ang**3):
         0.005947    0.000273   -0.000106
         0.000273    0.001476   -0.000343
        -0.000106   -0.000343    0.000152

siesta: Pressure (static):         -4.04564516  kBar

siesta: Stress tensor (total) (eV/Ang**3):
         0.004115    0.000298    0.000125
         0.000298    0.000218   -0.000355
         0.000125   -0.000355    0.000064

siesta: Pressure (total):         -2.34794811  kBar

siesta: E_kin PR =    1119.339 K

siesta: Temp_ion =    1921.830 K

                     ====================================
                        Begin MD step =      5
                     ====================================

outcoor: Atomic coordinates (Ang):                          
    0.00756927   -0.03261702   -0.00338623   1       1  O
    0.93445239    0.75382155    0.00320121   2       2  H
   -0.94083920    0.72493556   -0.02215440   2       3  H
   -0.00507731    0.02904763    3.00307604   1       4  O
    0.93798288   -0.72154392    2.93977322   2       5  H
   -0.97130694   -0.69980800    3.07101525   2       6  H

outcell: Unit cell vectors (Ang):
        9.991745   -0.000046   -0.000027
       -0.000046    9.990992    0.000059
       -0.000033    0.000073    7.987110

outcell: Cell vector modules (Ang)   :    9.991745    9.990992    7.987110
outcell: Cell angles (23,13,12) (deg):     89.9991     90.0004     90.0005
outcell: Cell volume (Ang**3)        :    797.3327
Gamma-point calculation with multiply-connected orbital pairs
Folding of H and S implicitly performed
<dSpData1D:S at geom step 5
  <sparsity:sparsity for geom step 5
    nrows_g=12 nrows=12 sparsity=1.0000 nnzs=144, refcount: 7>
  <dData1D:(new from dSpData1D) n=144, refcount: 1>
refcount: 1>
new_DM -- step:     5
Re-using DM from previous geometries...
Number of DMs in history: 1
 DM extrapolation coefficients: 
1   1.00000
New DM after history re-use:
<dSpData2D:SpM extrapolated using coords
  <sparsity:sparsity for geom step 5
    nrows_g=12 nrows=12 sparsity=1.0000 nnzs=144, refcount: 9>
  <dData2D:(temp array for extrapolation) n=144 m=1, refcount: 1>
refcount: 1>
Note: For starting DM, Qtot, Tr[D*S] =         16.00000000         15.94362790
No. of atoms with KB's overlaping orbs in proc 0. Max # of overlaps:       6      11

InitMesh: MESH = 64 x 64 x 50 = 204800
InitMesh: Mesh cutoff (required, used) =   100.000   108.309 Ry
New grid distribution [1]: sub = 2

        iscf     Eharris(eV)        E_KS(eV)     FreeEng(eV)     dDmax    Ef(eV) dHmax(eV)
   scf:    1     -924.978989     -924.691548     -924.691548  0.173408 -2.472727  2.097733
   scf:    2     -921.141084     -923.810933     -923.810933  0.275350 -5.097913  4.518653
   scf:    3     -925.416799     -924.996558     -924.996558  0.175177 -1.308257  0.129662
   scf:    4     -924.997817     -924.997372     -924.997372  0.003211 -1.282631  0.099368
   scf:    5     -924.998026     -924.997707     -924.997707  0.002458 -1.272280  0.059482
   scf:    6     -924.998036     -924.997887     -924.997887  0.003603 -1.258020  0.002353
   scf:    7     -924.997887     -924.997887     -924.997887  0.000108 -1.257730  0.001289
   scf:    8     -924.997887     -924.997887     -924.997887  0.000032 -1.257567  0.000761

SCF Convergence by DM+H criterion
max |DM_out - DM_in|         :     0.0000319163
max |H_out - H_in|      (eV) :     0.0007613072
SCF cycle converged after 8 iterations

Using DM_out to compute the final energy and forces
No. of atoms with KB's overlaping orbs in proc 0. Max # of overlaps:       6      11

siesta: E_KS(eV) =             -924.9979

siesta: Atomic forces (eV/Ang):
     1   -0.000508    2.692840    0.056230
     2   -2.245145   -1.374943    0.060372
     3    2.260597   -1.291384    0.125963
     4   -0.105024   -2.174000    0.933854
     5   -2.354136    1.084602    0.063718
     6    2.445412    1.077196   -0.233421
----------------------------------------
   Tot    0.001196    0.014310    1.006715
----------------------------------------
   Max    2.692840
   Res    1.500182    sqrt( Sum f_i^2 / 3N )
----------------------------------------
   Max    2.692840    constrained

Stress tensor Voigt[x,y,z,yz,xz,xy] (kbar):       15.09        5.07        0.00       -0.61       -0.10        0.27
(Free)E + p*V (eV/cell)     -928.3432
Target enthalpy (eV/cell)     -875.2323

siesta: Stress tensor (static) (eV/Ang**3):
         0.011070    0.000087   -0.000280
         0.000087    0.004537   -0.000332
        -0.000280   -0.000332    0.000093

siesta: Pressure (static):         -8.38477056  kBar

siesta: Stress tensor (total) (eV/Ang**3):
         0.009421    0.000166   -0.000060
         0.000166    0.003165   -0.000382
        -0.000060   -0.000382    0.000001

siesta: Pressure (total):         -6.72210069  kBar

siesta: E_kin PR =    1946.108 K

siesta: Temp_ion =    1138.170 K

                     ====================================
                        Begin MD step =      6
                     ====================================

outcoor: Atomic coordinates (Ang):                          
    0.00954310   -0.03992129   -0.00418738   1       1  O
    0.95885339    0.78789949    0.00594495   2       2  H
   -0.96788652    0.75359327   -0.02499433   2       3  H
   -0.00675357    0.03612531    3.00409168   1       4  O
    0.96488561   -0.75552605    2.92276723   2       5  H
   -1.00031485   -0.72426779    3.08376500   2       6  H

outcell: Unit cell vectors (Ang):
        9.986991   -0.000071   -0.000036
       -0.000071    9.986185    0.000089
       -0.000045    0.000111    7.980676

outcell: Cell vector modules (Ang)   :    9.986991    9.986185    7.980676
outcell: Cell angles (23,13,12) (deg):     89.9987     90.0005     90.0008
outcell: Cell volume (Ang**3)        :    795.9283
Gamma-point calculation with multiply-connected orbital pairs
Folding of H and S implicitly performed
<dSpData1D:S at geom step 6
  <sparsity:sparsity for geom step 6
    nrows_g=12 nrows=12 sparsity=1.0000 nnzs=144, refcount: 7>
  <dData1D:(new from dSpData1D) n=144, refcount: 1>
refcount: 1>
new_DM -- step:     6
Re-using DM from previous geometries...
Number of DMs in history: 1
 DM extrapolation coefficients: 
1   1.00000
New DM after history re-use:
<dSpData2D:SpM extrapolated using coords
  <sparsity:sparsity for geom step 6
    nrows_g=12 nrows=12 sparsity=1.0000 nnzs=144, refcount: 9>
  <dData2D:(temp array for extrapolation) n=144 m=1, refcount: 1>
refcount: 1>
Note: For starting DM, Qtot, Tr[D*S] =         16.00000000         15.95879820
No. of atoms with KB's overlaping orbs in proc 0. Max # of overlaps:       6      11

InitMesh: MESH = 64 x 64 x 50 = 204800
InitMesh: Mesh cutoff (required, used) =   100.000   108.483 Ry
New grid distribution [1]: sub = 2

        iscf     Eharris(eV)        E_KS(eV)     FreeEng(eV)     dDmax    Ef(eV) dHmax(eV)
   scf:    1     -924.607452     -924.363536     -924.363536  0.113872 -1.597028  1.425294
   scf:    2     -922.184143     -923.792607     -923.792607  0.204017 -2.302548  3.408395
   scf:    3     -924.738829     -924.508436     -924.508436  0.136489 -1.806958  0.093463
   scf:    4     -924.509061     -924.508801     -924.508801  0.001698 -1.791861  0.069710
   scf:    5     -924.509197     -924.509005     -924.509005  0.001993 -1.782724  0.036412
   scf:    6     -924.509146     -924.509086     -924.509086  0.002137 -1.773696  0.001955
   scf:    7     -924.509086     -924.509086     -924.509086  0.000081 -1.773367  0.001006
   scf:    8     -924.509086     -924.509086     -924.509086  0.000027 -1.773209  0.000535

SCF Convergence by DM+H criterion
max |DM_out - DM_in|         :     0.0000269609
max |H_out - H_in|      (eV) :     0.0005354580
SCF cycle converged after 8 iterations

Using DM_out to compute the final energy and forces
No. of atoms with KB's overlaping orbs in proc 0. Max # of overlaps:       6      11

siesta: E_KS(eV) =             -924.5091

siesta: Atomic forces (eV/Ang):
     1   -0.037930    3.503365    0.088281
     2   -2.610137   -1.786075    0.043697
     3    2.665510   -1.692043    0.133796
     4   -0.019740   -2.974172    0.856502
     5   -2.807909    1.536315    0.140017
     6    2.811753    1.419626   -0.283685
----------------------------------------
   Tot    0.001547    0.007017    0.978608
----------------------------------------
   Max    3.503365
   Res    1.857703    sqrt( Sum f_i^2 / 3N )
----------------------------------------
   Max    3.503365    constrained

Stress tensor Voigt[x,y,z,yz,xz,xy] (kbar):       20.11        8.71       -0.05       -0.61       -0.42        0.06
(Free)E + p*V (eV/cell)     -929.2740
Target enthalpy (eV/cell)     -874.8312

siesta: Stress tensor (static) (eV/Ang**3):
         0.013344   -0.000048   -0.000413
        -0.000048    0.006405   -0.000308
        -0.000413   -0.000308    0.000057

siesta: Pressure (static):        -10.57788612  kBar

siesta: Stress tensor (total) (eV/Ang**3):
         0.012554    0.000035   -0.000264
         0.000035    0.005437   -0.000383
        -0.000264   -0.000383   -0.000031

siesta: Pressure (total):         -9.59170257  kBar

siesta: E_kin PR =    3037.572 K

siesta: Temp_ion =     399.934 K

                     ====================================
                        Begin MD step =      7
                     ====================================

outcoor: Atomic coordinates (Ang):                          
    0.01149286   -0.04510842   -0.00493464   1       1  O
    0.95815268    0.80479366    0.00910697   2       2  H
   -0.96930106    0.76597107   -0.02654979   2       3  H
   -0.00843819    0.04140840    3.00514174   1       4  O
    0.96479561   -0.77471573    2.90663248   2       5  H
   -1.00228340   -0.73505528    3.09330371   2       6  H

outcell: Unit cell vectors (Ang):
        9.980996   -0.000095   -0.000040
       -0.000095    9.980257    0.000126
       -0.000050    0.000157    7.972961

outcell: Cell vector modules (Ang)   :    9.980996    9.980257    7.972961
outcell: Cell angles (23,13,12) (deg):     89.9982     90.0006     90.0011
outcell: Cell volume (Ang**3)        :    794.2098
Gamma-point calculation with multiply-connected orbital pairs
Folding of H and S implicitly performed
<dSpData1D:S at geom step 7
  <sparsity:sparsity for geom step 7
    nrows_g=12 nrows=12 sparsity=1.0000 nnzs=144, refcount: 7>
  <dData1D:(new from dSpData1D) n=144, refcount: 1>
refcount: 1>
new_DM -- step:     7
Re-using DM from previous geometries...
Number of DMs in history: 1
 DM extrapolation coefficients: 
1   1.00000
New DM after history re-use:
<dSpData2D:SpM extrapolated using coords
  <sparsity:sparsity for geom step 7
    nrows_g=12 nrows=12 sparsity=1.0000 nnzs=144, refcount: 9>
  <dData2D:(temp array for extrapolation) n=144 m=1, refcount: 1>
refcount: 1>
No. of atoms with KB's overlaping orbs in proc 0. Max # of overlaps:       6      11

InitMesh: MESH = 64 x 64 x 48 = 196608
InitMesh: Mesh cutoff (required, used) =   100.000   100.172 Ry
New grid distribution [1]: sub = 2

        iscf     Eharris(eV)        E_KS(eV)     FreeEng(eV)     dDmax    Ef(eV) dHmax(eV)
   scf:    1     -924.503995     -924.368181     -924.368181  0.045977 -1.889130  0.533240
   scf:    2     -924.046239     -924.282164     -924.282164  0.079961 -2.151222  1.320339
   scf:    3     -924.418917     -924.387409     -924.387409  0.055207 -1.962601  0.035771
   scf:    4     -924.387509     -924.387460     -924.387460  0.000600 -1.958331  0.025410
   scf:    5     -924.387543     -924.387505     -924.387505  0.001211 -1.952222  0.006005
   scf:    6     -924.387510     -924.387508     -924.387508  0.000356 -1.950646  0.001230
   scf:    7     -924.387508     -924.387508     -924.387508  0.000048 -1.950435  0.000608

SCF Convergence by DM+H criterion
max |DM_out - DM_in|         :     0.0000482595
max |H_out - H_in|      (eV) :     0.0006079967
SCF cycle converged after 7 iterations

Using DM_out to compute the final energy and forces
No. of atoms with KB's overlaping orbs in proc 0. Max # of overlaps:       6      11

siesta: E_KS(eV) =             -924.3875

siesta: Atomic forces (eV/Ang):
     1   -0.064046    3.830646    0.178641
     2   -2.625469   -1.953902    0.032411
     3    2.707628   -1.854362    0.137749
     4    0.039669   -3.331407   -0.662520
     5   -2.882747    1.748857    0.187044
     6    2.822689    1.553650   -0.318661
----------------------------------------
   Tot   -0.002276   -0.006518   -0.445336
----------------------------------------
   Max    3.830646
   Res    1.966893    sqrt( Sum f_i^2 / 3N )
----------------------------------------
   Max    3.830646    constrained

Stress tensor Voigt[x,y,z,yz,xz,xy] (kbar):       21.52       10.97       -0.39       -0.56       -0.69       -0.16
(Free)E + p*V (eV/cell)     -929.6903
Target enthalpy (eV/cell)     -874.8168

siesta: Stress tensor (static) (eV/Ang**3):
         0.013550   -0.000158   -0.000492
        -0.000158    0.007292   -0.000274
        -0.000491   -0.000274   -0.000163

siesta: Pressure (static):        -11.04453608  kBar

siesta: Stress tensor (total) (eV/Ang**3):
         0.013429   -0.000101   -0.000430
        -0.000101    0.006847   -0.000353
        -0.000430   -0.000352   -0.000245

siesta: Pressure (total):        -10.69736007  kBar

siesta: E_kin PR =    4391.305 K

siesta: Temp_ion =     159.790 K

                     ====================================
                        Begin MD step =      8
                     ====================================

outcoor: Atomic coordinates (Ang):                          
    0.01340256   -0.04798038   -0.00557339   1       1  O
    0.93220356    0.80289452    0.01257894   2       2  H
   -0.94467910    0.76051228   -0.02678296   2       3  H
   -0.01009391    0.04468036    3.00531177   1       4  O
    0.93699729   -0.77707524    2.89182359   2       5  H
   -0.97710633   -0.73088574    3.09929660   2       6  H

outcell: Unit cell vectors (Ang):
        9.973759   -0.000118   -0.000035
       -0.000118    9.973189    0.000168
       -0.000044    0.000210    7.963971

outcell: Cell vector modules (Ang)   :    9.973759    9.973189    7.963971
outcell: Cell angles (23,13,12) (deg):     89.9975     90.0005     90.0014
outcell: Cell volume (Ang**3)        :    792.1776
Gamma-point calculation with multiply-connected orbital pairs
Folding of H and S implicitly performed
<dSpData1D:S at geom step 8
  <sparsity:sparsity for geom step 8
    nrows_g=12 nrows=12 sparsity=1.0000 nnzs=144, refcount: 7>
  <dData1D:(new from dSpData1D) n=144, refcount: 1>
refcount: 1>
new_DM -- step:     8
Re-using DM from previous geometries...
Number of DMs in history: 1
 DM extrapolation coefficients: 
1   1.00000
New DM after history re-use:
<dSpData2D:SpM extrapolated using coords
  <sparsity:sparsity for geom step 8
    nrows_g=12 nrows=12 sparsity=1.0000 nnzs=144, refcount: 9>
  <dData2D:(temp array for extrapolation) n=144 m=1, refcount: 1>
refcount: 1>
No. of atoms with KB's overlaping orbs in proc 0. Max # of overlaps:       6      11

InitMesh: MESH = 60 x 60 x 48 = 172800
InitMesh: Mesh cutoff (required, used) =   100.000   100.020 Ry
New grid distribution [1]: sub = 2

        iscf     Eharris(eV)        E_KS(eV)     FreeEng(eV)     dDmax    Ef(eV) dHmax(eV)
   scf:    1     -924.388176     -924.634518     -924.634518  0.023930 -1.861721  0.422727
   scf:    2     -924.445267     -924.584467     -924.584467  0.060558 -1.659917  1.039082
   scf:    3     -924.664633     -924.646494     -924.646494  0.042605 -1.804830  0.037776
   scf:    4     -924.646591     -924.646544     -924.646544  0.000646 -1.806684  0.025974
   scf:    5     -924.646619     -924.646586     -924.646586  0.001357 -1.811777  0.002369
   scf:    6     -924.646586     -924.646586     -924.646586  0.000083 -1.812150  0.001262
   scf:    7     -924.646586     -924.646586     -924.646586  0.000055 -1.812276  0.000468

SCF Convergence by DM+H criterion
max |DM_out - DM_in|         :     0.0000552779
max |H_out - H_in|      (eV) :     0.0004678166
SCF cycle converged after 7 iterations

Using DM_out to compute the final energy and forces
No. of atoms with KB's overlaping orbs in proc 0. Max # of overlaps:       6      11

siesta: E_KS(eV) =             -924.6466

siesta: Atomic forces (eV/Ang):
     1   -0.082058    3.848442    0.216864
     2   -2.347250   -1.908421    0.029755
     3    2.447007   -1.815476    0.137126
     4    0.113154   -3.409518   -0.812899
     5   -2.664282    1.769874    0.203085
     6    2.528406    1.500382   -0.316575
----------------------------------------
   Tot   -0.005022   -0.014717   -0.542643
----------------------------------------
   Max    3.848442
   Res    1.894937    sqrt( Sum f_i^2 / 3N )
----------------------------------------
   Max    3.848442    constrained

Stress tensor Voigt[x,y,z,yz,xz,xy] (kbar):       18.95       11.38       -0.26       -0.48       -0.82       -0.38
(Free)E + p*V (eV/cell)     -929.6029
Target enthalpy (eV/cell)     -875.2028

siesta: Stress tensor (static) (eV/Ang**3):
         0.011919   -0.000264   -0.000495
        -0.000264    0.007206   -0.000246
        -0.000495   -0.000246   -0.000096

siesta: Pressure (static):        -10.16308691  kBar

siesta: Stress tensor (total) (eV/Ang**3):
         0.011829   -0.000239   -0.000510
        -0.000239    0.007104   -0.000302
        -0.000510   -0.000302   -0.000164

siesta: Pressure (total):        -10.02407056  kBar

siesta: E_kin PR =    5989.515 K

siesta: Temp_ion =     531.275 K

                     ====================================
                        Begin MD step =      9
                     ====================================

outcoor: Atomic coordinates (Ang):                          
    0.01526112   -0.04852612   -0.00608048   1       1  O
    0.88367594    0.78263797    0.01633493   2       2  H
   -0.89652169    0.73758971   -0.02569990   2       3  H
   -0.01167585    0.04589321    3.00451052   1       4  O
    0.88358893   -0.76240363    2.87849607   2       5  H
   -0.92760691   -0.71227038    3.10176213   2       6  H

outcell: Unit cell vectors (Ang):
        9.965318   -0.000136   -0.000021
       -0.000136    9.964983    0.000214
       -0.000027    0.000268    7.953706

outcell: Cell vector modules (Ang)   :    9.965318    9.964983    7.953706
outcell: Cell angles (23,13,12) (deg):     89.9968     90.0003     90.0016
outcell: Cell volume (Ang**3)        :    789.8367
Gamma-point calculation with multiply-connected orbital pairs
Folding of H and S implicitly performed
<dSpData1D:S at geom step 9
  <sparsity:sparsity for geom step 9
    nrows_g=12 nrows=12 sparsity=1.0000 nnzs=144, refcount: 7>
  <dData1D:(new from dSpData1D) n=144, refcount: 1>
refcount: 1>
new_DM -- step:     9
Re-using DM from previous geometries...
Number of DMs in history: 1
 DM extrapolation coefficients: 
1   1.00000
New DM after history re-use:
<dSpData2D:SpM extrapolated using coords
  <sparsity:sparsity for geom step 9
    nrows_g=12 nrows=12 sparsity=1.0000 nnzs=144, refcount: 9>
  <dData2D:(temp array for extrapolation) n=144 m=1, refcount: 1>
refcount: 1>
Note: For starting DM, Qtot, Tr[D*S] =         16.00000000         16.03678212
No. of atoms with KB's overlaping orbs in proc 0. Max # of overlaps:       6      11

InitMesh: MESH = 60 x 60 x 48 = 172800
InitMesh: Mesh cutoff (required, used) =   100.000   100.189 Ry
New grid distribution [1]: sub = 2

        iscf     Eharris(eV)        E_KS(eV)     FreeEng(eV)     dDmax    Ef(eV) dHmax(eV)
   scf:    1     -924.243639     -925.107336     -925.107336  0.077704 -1.485773  1.119053
   scf:    2     -924.025493     -924.832889     -924.832889  0.148628 -0.934226  2.462121
   scf:    3     -925.302025     -925.192137     -925.192137  0.102038 -1.322668  0.104455
   scf:    4     -925.192782     -925.192475     -925.192475  0.002112 -1.327450  0.071069
   scf:    5     -925.192941     -925.192730     -925.192730  0.003579 -1.341379  0.012810
   scf:    6     -925.192742     -925.192734     -925.192734  0.000741 -1.346485  0.003467
   scf:    7     -925.192735     -925.192735     -925.192735  0.000102 -1.347200  0.001931
   scf:    8     -925.192735     -925.192735     -925.192735  0.000045 -1.347308  0.001320
   scf:    9     -925.192735     -925.192735     -925.192735  0.000056 -1.347345  0.000515

SCF Convergence by DM+H criterion
max |DM_out - DM_in|         :     0.0000561300
max |H_out - H_in|      (eV) :     0.0005147175
SCF cycle converged after 9 iterations

Using DM_out to compute the final energy and forces
No. of atoms with KB's overlaping orbs in proc 0. Max # of overlaps:       6      11

siesta: E_KS(eV) =             -925.1927

siesta: Atomic forces (eV/Ang):
     1   -0.084831    3.223516    0.244732
     2   -1.660804   -1.572863    0.040841
     3    1.764249   -1.510951    0.128906
     4    0.231868   -2.879042   -0.917281
     5   -2.055138    1.541789    0.162185
     6    1.800104    1.186581   -0.266106
----------------------------------------
   Tot   -0.004553   -0.010969   -0.606723
----------------------------------------
   Max    3.223516
   Res    1.520862    sqrt( Sum f_i^2 / 3N )
----------------------------------------
   Max    3.223516    constrained

Stress tensor Voigt[x,y,z,yz,xz,xy] (kbar):       12.02        9.30       -0.10       -0.40       -0.72       -0.61
(Free)E + p*V (eV/cell)     -928.6805
Target enthalpy (eV/cell)     -875.8950

siesta: Stress tensor (static) (eV/Ang**3):
         0.008247   -0.000383   -0.000387
        -0.000383    0.005883   -0.000233
        -0.000387   -0.000233   -0.000014

siesta: Pressure (static):         -7.53844671  kBar

siesta: Stress tensor (total) (eV/Ang**3):
         0.007503   -0.000378   -0.000452
        -0.000378    0.005807   -0.000249
        -0.000452   -0.000249   -0.000063

siesta: Pressure (total):         -7.07491352  kBar

siesta: E_kin PR =    7798.573 K

siesta: Temp_ion =    1325.328 K

                     ====================================
                        Begin MD step =     10
                     ====================================

outcoor: Atomic coordinates (Ang):                          
    0.01706678   -0.04712256   -0.00643902   1       1  O
    0.81915293    0.74724038    0.02048027   2       2  H
   -0.83137644    0.70012261   -0.02337934   2       3  H
   -0.01311297    0.04536639    3.00267461   1       4  O
    0.81041339   -0.73288806    2.86625995   2       5  H
   -0.86077002   -0.68221740    3.10118252   2       6  H

outcell: Unit cell vectors (Ang):
        9.955754   -0.000148    0.000000
       -0.000149    9.955670    0.000264
        0.000000    0.000330    7.942167

outcell: Cell vector modules (Ang)   :    9.955754    9.955670    7.942167
outcell: Cell angles (23,13,12) (deg):     89.9961     90.0000     90.0017
outcell: Cell volume (Ang**3)        :    787.1974
Gamma-point calculation with multiply-connected orbital pairs
Folding of H and S implicitly performed
<dSpData1D:S at geom step 10
  <sparsity:sparsity for geom step 10
    nrows_g=12 nrows=12 sparsity=1.0000 nnzs=144, refcount: 7>
  <dData1D:(new from dSpData1D) n=144, refcount: 1>
refcount: 1>
new_DM -- step:    10
Re-using DM from previous geometries...
Number of DMs in history: 1
 DM extrapolation coefficients: 
1   1.00000
New DM after history re-use:
<dSpData2D:SpM extrapolated using coords
  <sparsity:sparsity for geom step 10
    nrows_g=12 nrows=12 sparsity=1.0000 nnzs=144, refcount: 9>
  <dData2D:(temp array for extrapolation) n=144 m=1, refcount: 1>
refcount: 1>
Note: For starting DM, Qtot, Tr[D*S] =         16.00000000         16.04292413
No. of atoms with KB's overlaping orbs in proc 0. Max # of overlaps:       6      11

InitMesh: MESH = 60 x 60 x 48 = 172800
InitMesh: Mesh cutoff (required, used) =   100.000   100.382 Ry
New grid distribution [1]: sub = 2

        iscf     Eharris(eV)        E_KS(eV)     FreeEng(eV)     dDmax    Ef(eV) dHmax(eV)
   scf:    1     -924.017324     -925.513551     -925.513551  0.118105 -4.028543  1.502126
   scf:    2     -924.205670     -925.212892     -925.212892  0.174493 -3.245933  2.794537
   scf:    3     -925.813934     -925.662296     -925.662296  0.114167 -3.770911  0.146180
   scf:    4     -925.663464     -925.662912     -925.662912  0.003067 -3.779032  0.100273
   scf:    5     -925.663726     -925.663360     -925.663360  0.005313 -3.802131  0.022457
   scf:    6     -925.663405     -925.663385     -925.663385  0.001160 -3.811461  0.007656
   scf:    7     -925.663388     -925.663387     -925.663387  0.000177 -3.813830  0.003743
   scf:    8     -925.663388     -925.663387     -925.663387  0.000085 -3.813961  0.002592
   scf:    9     -925.663388     -925.663388     -925.663388  0.000105 -3.813911  0.001085
   scf:   10     -925.663388     -925.663388     -925.663388  0.000057 -3.813790  0.000259

SCF Convergence by DM+H criterion
max |DM_out - DM_in|         :     0.0000570731
max |H_out - H_in|      (eV) :     0.0002587971
SCF cycle converged after 10 iterations

Using DM_out to compute the final energy and forces
No. of atoms with KB's overlaping orbs in proc 0. Max # of overlaps:       6      11

siesta: E_KS(eV) =             -925.6634

siesta: Atomic forces (eV/Ang):
     1   -0.054412    1.675015    0.257122
     2   -0.304750   -0.742502    0.081381
     3    0.377442   -0.756081    0.106607
     4    0.402807   -1.491712   -0.969995
     5   -0.791747    0.872894   -0.003926
     6    0.365271    0.439304   -0.116214
----------------------------------------
   Tot   -0.005390   -0.003081   -0.645024
----------------------------------------
   Max    1.675015
   Res    0.719109    sqrt( Sum f_i^2 / 3N )
----------------------------------------
   Max    1.675015    constrained

Stress tensor Voigt[x,y,z,yz,xz,xy] (kbar):        0.19        3.83        0.06       -0.38       -0.28       -0.77
(Free)E + p*V (eV/cell)     -926.3308
Target enthalpy (eV/cell)     -876.5304

siesta: Stress tensor (static) (eV/Ang**3):
         0.001908   -0.000495   -0.000090
        -0.000495    0.002740   -0.000265
        -0.000090   -0.000265    0.000068

siesta: Pressure (static):         -2.51830142  kBar

siesta: Stress tensor (total) (eV/Ang**3):
         0.000118   -0.000480   -0.000175
        -0.000480    0.002391   -0.000237
        -0.000175   -0.000237    0.000034

siesta: Pressure (total):         -1.35830621  kBar

siesta: E_kin PR =    9765.602 K

siesta: Temp_ion =    1983.432 K

outcell: Unit cell vectors (Ang):
        9.955754   -0.000148    0.000000
       -0.000149    9.955670    0.000264
        0.000000    0.000330    7.942167

outcell: Cell vector modules (Ang)   :    9.955754    9.955670    7.942167
outcell: Cell angles (23,13,12) (deg):     89.9961     90.0000     90.0017
outcell: Cell volume (Ang**3)        :    787.1974

siesta: Program's energy decomposition (eV):
siesta: Ebs     =      -187.640742
siesta: Eions   =      1621.026762
siesta: Ena     =       347.616794
siesta: Ekin    =       684.272826
siesta: Enl     =      -113.047057
siesta: Eso     =         0.000000
siesta: Edftu   =         0.000000
siesta: DEna    =        -7.200971
siesta: DUscf   =         3.178775
siesta: DUext   =         0.000000
siesta: Ex      =      -194.671350
siesta: Ec      =       -24.785643
siesta: Exc     =      -219.456993
siesta: EbV     =         0.000000
siesta: eta*DQ  =         0.000000
siesta: Emadel  =         0.000000
siesta: Emeta   =         0.000000
siesta: Emolmec =         0.000000
siesta: Ekinion =         1.281892
siesta: Eharris =      -924.381496
siesta: Etot    =      -924.381496
siesta: FreeEng =      -924.381496

siesta: Final energy (eV):
siesta:  Band Struct. =    -187.640742
siesta:       Kinetic =     684.272826
siesta:       Hartree =     921.029034
siesta:         Edftu =       0.000000
siesta:       Eso     =       0.000000
siesta:    Ext. field =       0.000000
siesta:         Exch. =    -194.671350
siesta:         Corr. =     -24.785643
siesta:     Bulk bias =       0.000000
siesta:   Exch.-corr. =    -219.456993
siesta:  Ion-electron =   -2426.463926
siesta:       Ion-ion =     114.955671
siesta:       Ekinion =       1.281892
siesta: D3 dispersion =       0.000000
siesta:         Total =    -924.381496
siesta:         Fermi =      -3.813790

siesta: Atomic forces (eV/Ang):
siesta:      1   -0.054412    1.675015    0.257122
siesta:      2   -0.304750   -0.742502    0.081381
siesta:      3    0.377442   -0.756081    0.106607
siesta:      4    0.402807   -1.491712   -0.969995
siesta:      5   -0.791747    0.872894   -0.003926
siesta:      6    0.365271    0.439304   -0.116214
siesta: ----------------------------------------
siesta:    Tot   -0.005390   -0.003081   -0.645024

siesta: Stress tensor (static) (eV/Ang**3):
siesta:     0.001908   -0.000495   -0.000090
siesta:    -0.000495    0.002740   -0.000265
siesta:    -0.000090   -0.000265    0.000068

siesta: Cell volume =        787.197378 Ang**3

siesta: Pressure (static):
siesta:                Solid            Molecule  Units
siesta:          -0.00001712          0.00001064  Ry/Bohr**3
siesta:          -0.00157180          0.00097705  eV/Ang**3
siesta:          -2.51830142          1.56540753  kBar
(Free)E+ p_basis*V_orbitals  =        -925.013374
(Free)Eharris+ p_basis*V_orbitals  =        -925.013374

siesta: Electric dipole (a.u.)  =   -0.044303    0.011940   -0.000000
siesta: Electric dipole (Debye) =   -0.112608    0.030348   -0.000001

cite: Please see "pr.bib" for an exhaustive BiBTeX file.
cite: Please clearly indicate Siesta version in published work: 5.0.0-alpha-123-gfb8fd7d02
cite: This calculation has made use of the following articles
cite: which are encouraged to be cited in a published work.
        Primary SIESTA paper
          DOI: www.doi.org/10.1088/0953-8984/14/11/302


timer: Elapsed wall time (sec) =       1.932
timer: CPU execution times (sec):

Routine            Calls   Time/call    Tot.time        %
siesta                 1       1.932       1.932   100.00
Setup                  1       0.056       0.056     2.90
bands                  1       0.000       0.000     0.00
KSV_init               1       0.000       0.000     0.00
IterGeom              10       0.188       1.875    97.09
geom_init             10       0.035       0.350    18.12
state_init            10       0.000       0.005     0.26
hsparse               10       0.000       0.000     0.02
overlap               10       0.000       0.002     0.13
Setup_H0              10       0.020       0.198    10.25
naefs                 20       0.000       0.001     0.03
MolMec                20       0.000       0.000     0.00
kinefsm               20       0.000       0.002     0.12
nlefsm                20       0.001       0.017     0.87
DHSCF_Init            10       0.018       0.180     9.31
DHSCF1                10       0.003       0.026     1.33
INITMESH              10       0.000       0.000     0.00
DHSCF2                10       0.015       0.154     7.98
REMESH                10       0.001       0.006     0.29
REORD                290       0.000       0.036     1.89
PHION                 10       0.005       0.051     2.62
COMM_BSC             450       0.000       0.047     2.44
POISON               115       0.006       0.693    35.86
fft                  230       0.002       0.557    28.84
setup_H               95       0.014       1.360    70.39
DHSCF                105       0.016       1.652    85.50
DHSCF3               105       0.014       1.496    77.46
rhoofd               105       0.001       0.062     3.22
XC                   105       0.005       0.547    28.32
GXC-CellXC           105       0.005       0.500    25.88
gridxc@cellXC        105       0.005       0.499    25.86
vmat                 105       0.001       0.054     2.80
IterSCF               85       0.014       1.222    63.25
compute_dm            85       0.000       0.004     0.21
diagon                85       0.000       0.004     0.20
r-eigvec              85       0.000       0.003     0.16
r-buildHS             85       0.000       0.000     0.00
rdiag                 85       0.000       0.003     0.15
rdiag1                85       0.000       0.000     0.02
rdiag2                85       0.000       0.000     0.02
rdiag3                85       0.000       0.001     0.08
rdiag4                85       0.000       0.000     0.02
r-buildD              85       0.000       0.000     0.02
MIXER                 75       0.000       0.001     0.03
PostSCF               10       0.030       0.300    15.52
DHSCF4                10       0.016       0.155     8.04
dfscf                 10       0.011       0.109     5.64
overfsm               10       0.000       0.000     0.02
state_analysis        10       0.000       0.001     0.05
siesta_move           10       0.000       0.002     0.10
Analysis               1       0.000       0.000     0.01
optical                1       0.000       0.000     0.00
  

>> End of run:  28-SEP-2023  15:37:35
Job completed
