Siesta Version  : 5.0.0-alpha-123-gfb8fd7d02
Architecture    : ----
Compiler version: GNU-11.4.0
Compiler flags  : -fallow-argument-mismatch;-O3 -march=native
PP flags        : ----
Libraries       : ----
Parallelisations: none
GEMM3M support
NetCDF support
NetCDF-4 support
Lua support

Runtime information:
* Directory : /home/fnpedron/Siesta/siesta-dev/Tests/09.MolecularDynamics/work/pr_restart
* Running in serial mode.
>> Start of run:  28-SEP-2023  15:37:47

                           *********************** 
                           *  WELCOME TO SIESTA  * 
                           *********************** 

reinit: Reading from standard input
reinit: Dumping input in INPUT_TMP.60839
************************** Dump of input data file ****************************
%include ../../basejob.fdf
SystemLabel          pr
MD.TypeOfRun          ParrinelloRahman
MD.TargetPressure     10.0 GPa
MD.InitialTemperature 100 K
MD.TargetTemperature  600 K
************************** End of input data file *****************************

reinit: -----------------------------------------------------------------------
reinit: System Name: Water molecules MD
reinit: -----------------------------------------------------------------------
reinit: System Label: pr
reinit: -----------------------------------------------------------------------

initatom: Reading input for the pseudopotentials and atomic orbitals ----------
Species number:   1 Atomic number:    8 Label: O
Species number:   2 Atomic number:    1 Label: H


---- Processing specs for species: O
Ground state valence configuration:   2s02  2p04
Reading pseudopotential information in formatted form from:
  /home/fnpedron/Siesta/siesta-dev/Tests/Pseudos/O.psf

---- Processing specs for species: H
Ground state valence configuration:   1s01
Reading pseudopotential information in formatted form from:
  /home/fnpedron/Siesta/siesta-dev/Tests/Pseudos/H.psf

---- Pseudopotential check for O 

Pseudized shells:
2s( 2.00) rc: 1.14
2p( 4.00) rc: 1.14
3d( 0.00) rc: 1.14
4f( 0.00) rc: 1.14
Valence configuration for ps generation: (assumed as above)

---- Pseudopotential check for H 

Pseudized shells:
1s( 1.00) rc: 1.25
2p( 0.00) rc: 1.25
3d( 0.00) rc: 1.25
4f( 0.00) rc: 1.25
Valence configuration for ps generation: (assumed as above)
For O, standard SIESTA heuristics set lmxkb to 2
 (one more than the basis l, including polarization orbitals).
Use PS.lmax or PS.KBprojectors blocks to override.
For H, standard SIESTA heuristics set lmxkb to 1
 (one more than the basis l, including polarization orbitals).
Use PS.lmax or PS.KBprojectors blocks to override.

<basis_specs>
===============================================================================
O                    Z=   8    Mass=  15.999        Charge= 0.17977+309
Lmxo=1 Lmxkb= 2    BasisType=split      Semic=F
L=0  Nsemic=0  Cnfigmx=2
          i=1  nzeta=1  polorb=0  (2s)
            splnorm:   0.15000    
               vcte:    40.000    
               rinn:  -0.90000    
               qcoe:    0.0000    
               qyuk:    0.0000    
               qwid:   0.10000E-01
                rcs:    0.0000    
            lambdas:    1.0000    
L=1  Nsemic=0  Cnfigmx=2
          i=1  nzeta=1  polorb=0  (2p)
            splnorm:   0.15000    
               vcte:    40.000    
               rinn:  -0.90000    
               qcoe:    0.0000    
               qyuk:    0.0000    
               qwid:   0.10000E-01
                rcs:    0.0000    
            lambdas:    1.0000    
-------------------------------------------------------------------------------
L=0  Nkbl=1  erefs: 0.17977+309
L=1  Nkbl=1  erefs: 0.17977+309
L=2  Nkbl=1  erefs: 0.17977+309
===============================================================================
</basis_specs>

Using PAO.SplitTailNorm
atom: Called for O                     (Z =   8)
Maximum radius (at nrval) set to   50.00000 8518

read_vps: Pseudopotential generation method:
read_vps: ATM3      Troullier-Martins                       
Valence charge in pseudo generation:    6.00000

xc_check: Exchange-correlation functional:
xc_check: Ceperley-Alder
V l=0 = -2*Zval/r beyond r=  1.1366
V l=1 = -2*Zval/r beyond r=  1.1332
V l=2 = -2*Zval/r beyond r=  1.1298
All V_l potentials equal beyond r=  1.1355
This should be close to max(r_c) in ps generation
All pots = -2*Zval/r beyond r=  1.1366
Using small-core scheme (local charge) for Vlocal

VLOCAL_FROM_CHLOCAL: 99.0% of the norm of Vloc inside     33.667 Ry
VLOCAL_FROM_CHLOCAL: 99.9% of the norm of Vloc inside     76.727 Ry
atom: Maximum radius for chlocal:    1.37241
atom: Maximum radius for r*vlocal+2*Zval:    1.25469

KBgen: Kleinman-Bylander projectors: 
GHOST: No ghost state for L =  0
   l= 0   rc=  1.293209   el= -1.742414   Ekb=  9.076872   kbcos=  0.325320
GHOST: No ghost state for L =  1
   l= 1   rc=  1.284119   el= -0.676589   Ekb= -8.194485   kbcos= -0.396010
GHOST: No ghost state for L =  2
   l= 2   rc=  1.433152   el=  0.013307   Ekb= -2.071665   kbcos= -0.003690

KBgen: Total number of Kleinman-Bylander projectors:   9
atom: -------------------------------------------------------------------------

atom: SANKEY-TYPE ORBITALS:

SPLIT: Orbitals with angular momentum L= 0

SPLIT: Basis orbitals for state 2s

SPLIT: PAO cut-off radius determined from an
SPLIT: energy shift=  0.010000 Ry
Split based on tail norm

   izeta = 1
                 lambda =    1.000000
                     rc =    3.560943
                 energy =   -1.731321
                kinetic =    1.587329
    potential(screened) =   -3.318651
       potential(ionic) =  -11.260325

SPLIT: Orbitals with angular momentum L= 1

SPLIT: Basis orbitals for state 2p

SPLIT: PAO cut-off radius determined from an
SPLIT: energy shift=  0.010000 Ry
Split based on tail norm

   izeta = 1
                 lambda =    1.000000
                     rc =    4.290924
                 energy =   -0.665565
                kinetic =    4.934810
    potential(screened) =   -5.600376
       potential(ionic) =  -13.346429
atom: Total number of Sankey-type orbitals:  4

atm_pop: Valence configuration (for local Pseudopot. screening):
 2s( 2.00)                                                            
 2p( 4.00)                                                            
Vna: chval, zval:    6.00000   6.00000

Vna:  Cut-off radius for the neutral-atom potential:   4.290924

atom: _________________________________________________________________________

<basis_specs>
===============================================================================
H                    Z=   1    Mass=  1.0080        Charge= 0.17977+309
Lmxo=0 Lmxkb= 1    BasisType=split      Semic=F
L=0  Nsemic=0  Cnfigmx=1
          i=1  nzeta=1  polorb=0  (1s)
            splnorm:   0.15000    
               vcte:    40.000    
               rinn:  -0.90000    
               qcoe:    0.0000    
               qyuk:    0.0000    
               qwid:   0.10000E-01
                rcs:    0.0000    
            lambdas:    1.0000    
-------------------------------------------------------------------------------
L=0  Nkbl=1  erefs: 0.17977+309
L=1  Nkbl=1  erefs: 0.17977+309
===============================================================================
</basis_specs>

Using PAO.SplitTailNorm
atom: Called for H                     (Z =   1)
Maximum radius (at nrval) set to   50.00000 8518

read_vps: Pseudopotential generation method:
read_vps: ATM3      Troullier-Martins                       
Valence charge in pseudo generation:    1.00000

xc_check: Exchange-correlation functional:
xc_check: Ceperley-Alder
V l=0 = -2*Zval/r beyond r=  1.2384
V l=1 = -2*Zval/r beyond r=  1.2321
All V_l potentials equal beyond r=  1.2371
This should be close to max(r_c) in ps generation
All pots = -2*Zval/r beyond r=  1.2384
Using small-core scheme (local charge) for Vlocal

VLOCAL_FROM_CHLOCAL: 99.0% of the norm of Vloc inside     28.363 Ry
VLOCAL_FROM_CHLOCAL: 99.9% of the norm of Vloc inside     64.639 Ry
atom: Maximum radius for chlocal:    1.44620
atom: Maximum radius for r*vlocal+2*Zval:    1.31026

KBgen: Kleinman-Bylander projectors: 
GHOST: No ghost state for L =  0
   l= 0   rc=  1.364142   el= -0.467325   Ekb= -2.009475   kbcos= -0.336680
GHOST: No ghost state for L =  1
   l= 1   rc=  1.430269   el=  0.007562   Ekb= -0.503817   kbcos= -0.022554

KBgen: Total number of Kleinman-Bylander projectors:   4
atom: -------------------------------------------------------------------------

atom: SANKEY-TYPE ORBITALS:

SPLIT: Orbitals with angular momentum L= 0

SPLIT: Basis orbitals for state 1s

SPLIT: PAO cut-off radius determined from an
SPLIT: energy shift=  0.010000 Ry
Split based on tail norm

   izeta = 1
                 lambda =    1.000000
                     rc =    5.285354
                 energy =   -0.456120
                kinetic =    0.900445
    potential(screened) =   -1.356565
       potential(ionic) =   -1.890080
atom: Total number of Sankey-type orbitals:  1

atm_pop: Valence configuration (for local Pseudopot. screening):
 1s( 1.00)                                                            
Vna: chval, zval:    1.00000   1.00000

Vna:  Cut-off radius for the neutral-atom potential:   5.285354

atom: _________________________________________________________________________

prinput: Basis input 

PAO.BasisType split     

%block ChemicalSpeciesLabel
    1    8 O                       # Species index, atomic number, species label
    2    1 H                       # Species index, atomic number, species label
%endblock ChemicalSpeciesLabel

%block PAO.Basis                 # Define Basis set
# WARNING: This information might be incomplete!
O                     2                    # Species label, number of l-shells
 n=2   0   1                         # n, l, Nzeta 
   3.561   
   1.000   
 n=2   1   1                         # n, l, Nzeta 
   4.291   
   1.000   
H                     1                    # Species label, number of l-shells
 n=1   0   1                         # n, l, Nzeta 
   5.285   
   1.000   
%endblock PAO.Basis

prinput: ----------------------------------------------------------------------

Dumping basis to NetCDF file O.ion.nc
Dumping basis to NetCDF file H.ion.nc
coor:   Atomic-coordinates input format  =     Cartesian coordinates
coor:                                          (in Angstroms)

ioxv: Reading coordinates and velocities from file
! Info in XV file prevails over previous structure input

siesta: Atomic coordinates (Bohr) and species
siesta:      0.03558  -0.08314  -0.01196  1        1
siesta:      1.39516   1.32237   0.04369  2        2
siesta:     -1.41591   1.22908  -0.04220  2        3
siesta:     -0.02683   0.08200   5.66894  1        4
siesta:      1.35012  -1.30539   5.39721  2        5
siesta:     -1.46670  -1.21868   5.86033  2        6

siesta: System type = chain     

initatomlists: Number of atoms, orbitals, and projectors:      6    12    34

siesta: ******************** Simulation parameters ****************************
siesta:
siesta: The following are some of the parameters of the simulation.
siesta: A complete list of the parameters used, including default values,
siesta: can be found in file out.fdf
siesta:
redata: Spin configuration                          = none
redata: Number of spin components                   = 1
redata: Time-Reversal Symmetry                      = T
redata: Spin spiral                                 = F
redata: Long output                                 =   F
redata: Number of Atomic Species                    =        2
redata: Charge density info will appear in .RHO file
redata: Write Mulliken Pop.                         = NO
redata: Matel table size (NRTAB)                    =     1024
redata: Mesh Cutoff                                 =   100.0000 Ry
redata: Net charge of the system                    =     0.0000 |e|
redata: Min. number of SCF Iter                     =        0
redata: Max. number of SCF Iter                     =     1000
redata: SCF convergence failure will abort job
redata: SCF mix quantity                            = Hamiltonian
redata: Mix DM or H after convergence               =   F
redata: Recompute H after scf cycle                 =   F
redata: Mix DM in first SCF step                    =   T
redata: Write Pulay info on disk                    =   F
redata: New DM Occupancy tolerance                  = 0.000000000001
redata: No kicks to SCF
redata: DM Mixing Weight for Kicks                  =     0.5000
redata: Require Harris convergence for SCF          =   F
redata: Harris energy tolerance for SCF             =     0.000100 eV
redata: Require DM convergence for SCF              =   T
redata: DM tolerance for SCF                        =     0.000100
redata: Require EDM convergence for SCF             =   F
redata: EDM tolerance for SCF                       =     0.001000 eV
redata: Require H convergence for SCF               =   T
redata: Hamiltonian tolerance for SCF               =     0.001000 eV
redata: Require (free) Energy convergence for SCF   =   F
redata: (free) Energy tolerance for SCF             =     0.000100 eV
redata: Using DFT-D3 dispersion                     =   F
redata: Using Saved Data (generic)                  =   F
redata: Use continuation files for DM               =   F
redata: Neglect nonoverlap interactions             =   F
redata: Method of Calculation                       = Diagonalization
redata: Electronic Temperature                      =   299.9863 K
redata: Fix the spin of the system                  =   F
redata: Max. number of TDED Iter                    =        1
redata: Number of TDED substeps                     =        3
redata: Dynamics option                             = Parrinello-Rahman MD run
redata: Initial MD time step                        =        1
redata:   Final MD time step                        =       10
redata: Length of MD time step                      =     1.0000 fs
redata: Initial Temperature of MD run               =   100.0000 K
redata: Perform a MD quench                         =   F
redata: Parrinello-Rahman mass                      =  1360.5693 eV*fs**2
redata: Target Pressure                             =     0.0624 eV/Ang**3
mix.SCF: Pulay mixing                            = Pulay
mix.SCF:    Variant                              = stable
mix.SCF:    History steps                        = 2
mix.SCF:    Linear mixing weight                 =     0.250000
mix.SCF:    Mixing weight                        =     0.250000
mix.SCF:    SVD condition                        = 0.1000E-07
redata: Save all siesta data in one NC              =   F
redata: ***********************************************************************

%block SCF.Mixers
  Pulay
%endblock SCF.Mixers

%block SCF.Mixer.Pulay
  # Mixing method
  method pulay
  variant stable

  # Mixing options
  weight 0.2500
  weight.linear 0.2500
  history 2
%endblock SCF.Mixer.Pulay

Size of DM history Fstack: 1
Total number of electrons:    16.000000
Total ionic charge:    16.000000

siesta: k-grid: Number of k-points = 1
siesta: k-point is Gamma-only

diag: Algorithm                                     = D&C
diag: Used triangular part                          = Lower
diag: Absolute tolerance                            =  0.100E-15
diag: Orthogonalization factor                      =  0.100E-05
diag: Memory factor                                 =  1.0000


ts: **************************************************************
ts: Save H and S matrices                           =    F
ts: Save DM and EDM matrices                        =    F
ts: Only save the overlap matrix S                  =    F
ts: **************************************************************

************************ Begin: TS CHECKS AND WARNINGS ************************
************************ End: TS CHECKS AND WARNINGS **************************


                     ====================================
                        Begin MD step =      1
                     ====================================

outcoor: Atomic coordinates (Ang):                          
    0.01882780   -0.04399714   -0.00632705   1       1  O
    0.73828509    0.69976799    0.02312071   2       2  H
   -0.74926622    0.65040376   -0.02232921   2       3  H
   -0.01419539    0.04339141    2.99987313   1       4  O
    0.71445049   -0.69078054    2.85608083   2       5  H
   -0.77614453   -0.64489580    3.10115188   2       6  H

outcell: Unit cell vectors (Ang):
        9.945028   -0.000151    0.000028
       -0.000151    9.945261    0.000302
        0.000035    0.000377    7.929363

outcell: Cell vector modules (Ang)   :    9.945028    9.945261    7.929363
outcell: Cell angles (23,13,12) (deg):     89.9955     89.9996     90.0017
outcell: Cell volume (Ang**3)        :    784.2608
Gamma-point calculation with multiply-connected orbital pairs
Folding of H and S implicitly performed
<dSpData1D:S at geom step 1
  <sparsity:sparsity for geom step 1
    nrows_g=12 nrows=12 sparsity=1.0000 nnzs=144, refcount: 7>
  <dData1D:(new from dSpData1D) n=144, refcount: 1>
refcount: 1>
new_DM -- step:     1
Initializing Density Matrix...
DM filled with atomic data:
<dSpData2D:DM initialized from atoms
  <sparsity:sparsity for geom step 1
    nrows_g=12 nrows=12 sparsity=1.0000 nnzs=144, refcount: 8>
  <dData2D:DM n=144 m=1, refcount: 1>
refcount: 1>
No. of atoms with KB's overlaping orbs in proc 0. Max # of overlaps:       6      11

InitMesh: MESH = 60 x 60 x 48 = 172800
InitMesh: Mesh cutoff (required, used) =   100.000   100.594 Ry
New grid distribution [1]: sub = 2

stepf: Fermi-Dirac step function

siesta: Program's energy decomposition (eV):
siesta: Ebs     =      -143.846297
siesta: Eions   =      1621.026762
siesta: Ena     =       347.367566
siesta: Ekin    =       745.921365
siesta: Enl     =      -134.776711
siesta: Eso     =         0.000000
siesta: Edftu   =         0.000000
siesta: DEna    =       -37.592350
siesta: DUscf   =         7.821114
siesta: DUext   =         0.000000
siesta: Ex      =      -205.236378
siesta: Ec      =       -25.328424
siesta: Exc     =      -230.564802
siesta: EbV     =         0.000000
siesta: eta*DQ  =         0.000000
siesta: Emadel  =         0.000000
siesta: Emeta   =         0.000000
siesta: Emolmec =         0.000000
siesta: Ekinion =         0.000000
siesta: Eharris =      -916.503656
siesta: Etot    =      -922.850581
siesta: FreeEng =      -922.850581

        iscf     Eharris(eV)        E_KS(eV)     FreeEng(eV)     dDmax    Ef(eV) dHmax(eV)
   scf:    1     -916.503656     -922.850581     -922.850581  0.683246 -4.311441  7.405233
timer: Routine,Calls,Time,% = IterSCF        1       0.012  10.72
   scf:    2     -926.351818     -924.802960     -924.802960  0.151388 -3.475763  3.586465
   scf:    3     -925.562450     -925.352628     -925.352628  0.131809 -2.784708  0.716188
   scf:    4     -925.373701     -925.363627     -925.363627  0.009460 -2.855699  0.524859
   scf:    5     -925.379528     -925.372214     -925.372214  0.019621 -2.953826  0.171100
   scf:    6     -925.373699     -925.372997     -925.372997  0.006329 -2.964354  0.091448
   scf:    7     -925.373165     -925.373104     -925.373104  0.003181 -2.963752  0.028383
   scf:    8     -925.373116     -925.373111     -925.373111  0.000238 -2.960510  0.014144
   scf:    9     -925.373123     -925.373117     -925.373117  0.000301 -2.956496  0.009468
   scf:   10     -925.373122     -925.373120     -925.373120  0.000260 -2.955123  0.005677
   scf:   11     -925.373122     -925.373121     -925.373121  0.000275 -2.953988  0.003126
   scf:   12     -925.373121     -925.373121     -925.373121  0.000055 -2.953912  0.002408
   scf:   13     -925.373121     -925.373121     -925.373121  0.000048 -2.953914  0.001268
   scf:   14     -925.373121     -925.373121     -925.373121  0.000005 -2.953988  0.000736

SCF Convergence by DM+H criterion
max |DM_out - DM_in|         :     0.0000049978
max |H_out - H_in|      (eV) :     0.0007357882
SCF cycle converged after 14 iterations

Using DM_out to compute the final energy and forces
No. of atoms with KB's overlaping orbs in proc 0. Max # of overlaps:       6      11

siesta: E_KS(eV) =             -925.3731

siesta: E_KS - E_eggbox =      -925.3731

siesta: Atomic forces (eV/Ang):
     1    0.079133   -1.848450    0.218342
     2    2.447315    1.134412    0.195706
     3   -2.511102    0.954358    0.050278
     4    0.515047    1.780767   -0.908018
     5    1.947768   -0.844435   -0.508672
     6   -2.480247   -1.166853    0.277903
----------------------------------------
   Tot   -0.002087    0.009800   -0.674461
----------------------------------------
   Max    2.511102
   Res    1.386866    sqrt( Sum f_i^2 / 3N )
----------------------------------------
   Max    2.511102    constrained

Stress tensor Voigt[x,y,z,yz,xz,xy] (kbar):      -18.17       -7.04        0.11       -0.60        0.83       -0.61
(Free)E + p*V (eV/cell)     -921.2770
Target enthalpy (eV/cell)     -876.4234

siesta: Stress tensor (static) (eV/Ang**3):
        -0.008957   -0.000452    0.000609
        -0.000452   -0.003747   -0.000430
         0.000609   -0.000430    0.000094

siesta: Pressure (static):          6.73443732  kBar

siesta: Stress tensor (total) (eV/Ang**3):
        -0.011344   -0.000380    0.000517
        -0.000380   -0.004394   -0.000374
         0.000517   -0.000374    0.000069

siesta: Pressure (total):          8.36793900  kBar
 MD restart: Read old positions and cell from PR_RESTART

siesta: E_kin PR =   11793.986 K

siesta: Temp_ion =    1409.354 K

                     ====================================
                        Begin MD step =      2
                     ====================================

outcoor: Atomic coordinates (Ang):                          
    0.02066173   -0.04292551   -0.00635631   1       1  O
    0.69778631    0.67017145    0.02968990   2       2  H
   -0.70814746    0.61661396   -0.01894967   2       3  H
   -0.01503420    0.04328006    2.99591439   1       4  O
    0.65521164   -0.66269719    2.83786865   2       5  H
   -0.73314835   -0.62400560    3.10198462   2       6  H

outcell: Unit cell vectors (Ang):
        9.933640   -0.000150    0.000043
       -0.000150    9.933965    0.000359
        0.000054    0.000449    7.915278

outcell: Cell vector modules (Ang)   :    9.933640    9.933965    7.915278
outcell: Cell angles (23,13,12) (deg):     89.9947     89.9994     90.0017
outcell: Cell volume (Ang**3)        :    781.0831
Gamma-point calculation with multiply-connected orbital pairs
Folding of H and S implicitly performed
<dSpData1D:S at geom step 2
  <sparsity:sparsity for geom step 2
    nrows_g=12 nrows=12 sparsity=1.0000 nnzs=144, refcount: 7>
  <dData1D:(new from dSpData1D) n=144, refcount: 1>
refcount: 1>
new_DM -- step:     2
Re-using DM from previous geometries...
Number of DMs in history: 1
 DM extrapolation coefficients: 
1   1.00000
New DM after history re-use:
<dSpData2D:SpM extrapolated using coords
  <sparsity:sparsity for geom step 2
    nrows_g=12 nrows=12 sparsity=1.0000 nnzs=144, refcount: 9>
  <dData2D:(temp array for extrapolation) n=144 m=1, refcount: 1>
refcount: 1>
No. of atoms with KB's overlaping orbs in proc 0. Max # of overlaps:       6      11

InitMesh: MESH = 60 x 60 x 48 = 172800
InitMesh: Mesh cutoff (required, used) =   100.000   100.823 Ry
New grid distribution [1]: sub = 2

        iscf     Eharris(eV)        E_KS(eV)     FreeEng(eV)     dDmax    Ef(eV) dHmax(eV)
   scf:    1     -923.383275     -924.516249     -924.516249  0.092459 -2.554058  0.878413
   scf:    2     -924.341368     -924.493662     -924.493662  0.079411 -2.093600  1.162599
   scf:    3     -924.595144     -924.564845     -924.564845  0.044868 -2.364376  0.075637
   scf:    4     -924.565072     -924.564961     -924.564961  0.001450 -2.371394  0.054077
   scf:    5     -924.565157     -924.565071     -924.565071  0.003664 -2.391369  0.007163
   scf:    6     -924.565073     -924.565072     -924.565072  0.000119 -2.392745  0.003474
   scf:    7     -924.565073     -924.565073     -924.565073  0.000121 -2.393853  0.000966
   scf:    8     -924.565073     -924.565073     -924.565073  0.000021 -2.393851  0.000684

SCF Convergence by DM+H criterion
max |DM_out - DM_in|         :     0.0000210254
max |H_out - H_in|      (eV) :     0.0006840796
SCF cycle converged after 8 iterations

Using DM_out to compute the final energy and forces
No. of atoms with KB's overlaping orbs in proc 0. Max # of overlaps:       6      11

siesta: E_KS(eV) =             -924.5651

siesta: Atomic forces (eV/Ang):
     1    0.268234   -4.907449    0.152642
     2    4.568162    2.751380    0.324111
     3   -4.823024    2.441104    0.006154
     4    0.207268    4.739015   -0.702975
     5    4.361176   -2.607272   -1.121429
     6   -4.580482   -2.397112    0.667284
----------------------------------------
   Tot    0.001335    0.019667   -0.674212
----------------------------------------
   Max    4.907449
   Res    2.973822    sqrt( Sum f_i^2 / 3N )
----------------------------------------
   Max    4.907449    constrained

Stress tensor Voigt[x,y,z,yz,xz,xy] (kbar):      -29.12      -15.32        0.00       -1.02        1.90        0.08
(Free)E + p*V (eV/cell)     -917.3437
Target enthalpy (eV/cell)     -875.8137

siesta: Stress tensor (static) (eV/Ang**3):
        -0.016447   -0.000071    0.001295
        -0.000070   -0.008992   -0.000711
         0.001295   -0.000711    0.000031

siesta: Pressure (static):         13.57002773  kBar

siesta: Stress tensor (total) (eV/Ang**3):
        -0.018174    0.000048    0.001183
         0.000048   -0.009563   -0.000639
         0.001183   -0.000639    0.000001

siesta: Pressure (total):         14.81275404  kBar

siesta: E_kin PR =   13881.378 K

siesta: Temp_ion =     328.810 K

                     ====================================
                        Begin MD step =      3
                     ====================================

outcoor: Atomic coordinates (Ang):                          
    0.02265589   -0.04480957   -0.00629260   1       1  O
    0.70096020    0.66685177    0.03935589   2       2  H
   -0.71314006    0.60613574   -0.01550603   2       3  H
   -0.01575604    0.04602792    2.99105232   1       4  O
    0.63765887   -0.65950716    2.80846678   2       5  H
   -0.73394968   -0.62599996    3.10870833   2       6  H

outcell: Unit cell vectors (Ang):
        9.921513   -0.000149    0.000039
       -0.000149    9.921806    0.000427
        0.000049    0.000533    7.899927

outcell: Cell vector modules (Ang)   :    9.921513    9.921806    7.899927
outcell: Cell angles (23,13,12) (deg):     89.9937     89.9994     90.0017
outcell: Cell volume (Ang**3)        :    777.6635
Gamma-point calculation with multiply-connected orbital pairs
Folding of H and S implicitly performed
<dSpData1D:S at geom step 3
  <sparsity:sparsity for geom step 3
    nrows_g=12 nrows=12 sparsity=1.0000 nnzs=144, refcount: 7>
  <dData1D:(new from dSpData1D) n=144, refcount: 1>
refcount: 1>
new_DM -- step:     3
Re-using DM from previous geometries...
Number of DMs in history: 1
 DM extrapolation coefficients: 
1   1.00000
New DM after history re-use:
<dSpData2D:SpM extrapolated using coords
  <sparsity:sparsity for geom step 3
    nrows_g=12 nrows=12 sparsity=1.0000 nnzs=144, refcount: 9>
  <dData2D:(temp array for extrapolation) n=144 m=1, refcount: 1>
refcount: 1>
No. of atoms with KB's overlaping orbs in proc 0. Max # of overlaps:       6      11

InitMesh: MESH = 60 x 60 x 48 = 172800
InitMesh: Mesh cutoff (required, used) =   100.000   101.070 Ry
New grid distribution [1]: sub = 2

        iscf     Eharris(eV)        E_KS(eV)     FreeEng(eV)     dDmax    Ef(eV) dHmax(eV)
   scf:    1     -924.534550     -924.552842     -924.552842  0.029780 -2.374070  0.068411
   scf:    2     -924.553090     -924.553056     -924.553056  0.005143 -2.368536  0.030546
   scf:    3     -924.553163     -924.553122     -924.553122  0.001672 -2.372706  0.012317
   scf:    4     -924.553126     -924.553124     -924.553124  0.000188 -2.373847  0.007204
   scf:    5     -924.553127     -924.553126     -924.553126  0.000353 -2.375189  0.003415
   scf:    6     -924.553126     -924.553126     -924.553126  0.000134 -2.375323  0.001884
   scf:    7     -924.553126     -924.553126     -924.553126  0.000119 -2.375351  0.000323
   scf:    8     -924.553126     -924.553126     -924.553126  0.000008 -2.375314  0.000164

SCF Convergence by DM+H criterion
max |DM_out - DM_in|         :     0.0000083535
max |H_out - H_in|      (eV) :     0.0001639284
SCF cycle converged after 8 iterations

Using DM_out to compute the final energy and forces
No. of atoms with KB's overlaping orbs in proc 0. Max # of overlaps:       6      11

siesta: E_KS(eV) =             -924.5531

siesta: Atomic forces (eV/Ang):
     1    0.336220   -4.928137    0.103241
     2    4.464324    2.765046    0.365077
     3   -4.781959    2.449872    0.016080
     4   -0.294960    4.853320   -0.511955
     5    4.708848   -2.934223   -1.387858
     6   -4.424388   -2.177498    0.749562
----------------------------------------
   Tot    0.008085    0.028379   -0.665854
----------------------------------------
   Max    4.928137
   Res    3.004440    sqrt( Sum f_i^2 / 3N )
----------------------------------------
   Max    4.928137    constrained

Stress tensor Voigt[x,y,z,yz,xz,xy] (kbar):      -26.96      -14.83       -0.18       -1.40        2.31        0.69
(Free)E + p*V (eV/cell)     -917.7628
Target enthalpy (eV/cell)     -876.0152

siesta: Stress tensor (static) (eV/Ang**3):
        -0.016494    0.000365    0.001548
         0.000365   -0.009117   -0.000923
         0.001548   -0.000923   -0.000039

siesta: Pressure (static):         13.69851969  kBar

siesta: Stress tensor (total) (eV/Ang**3):
        -0.016830    0.000432    0.001442
         0.000432   -0.009255   -0.000874
         0.001442   -0.000874   -0.000110

siesta: Pressure (total):         13.98963278  kBar

siesta: E_kin PR =   16068.682 K

siesta: Temp_ion =     353.707 K

                     ====================================
                        Begin MD step =      4
                     ====================================

outcoor: Atomic coordinates (Ang):                          
    0.02485119   -0.04966167   -0.00616574   1       1  O
    0.74681226    0.68993996    0.05250899   2       2  H
   -0.76385102    0.61905455   -0.01190315   2       3  H
   -0.01666686    0.05170602    2.98540453   1       4  O
    0.66511891   -0.68433865    2.76533078   2       5  H
   -0.77705745   -0.64877398    3.12211137   2       6  H

outcell: Unit cell vectors (Ang):
        9.908651   -0.000153    0.000009
       -0.000153    9.908790    0.000510
        0.000012    0.000637    7.883315

outcell: Cell vector modules (Ang)   :    9.908651    9.908790    7.883315
outcell: Cell angles (23,13,12) (deg):     89.9924     89.9999     90.0018
outcell: Cell volume (Ang**3)        :    774.0055
Gamma-point calculation with multiply-connected orbital pairs
Folding of H and S implicitly performed
<dSpData1D:S at geom step 4
  <sparsity:sparsity for geom step 4
    nrows_g=12 nrows=12 sparsity=1.0000 nnzs=144, refcount: 7>
  <dData1D:(new from dSpData1D) n=144, refcount: 1>
refcount: 1>
new_DM -- step:     4
Re-using DM from previous geometries...
Number of DMs in history: 1
 DM extrapolation coefficients: 
1   1.00000
New DM after history re-use:
<dSpData2D:SpM extrapolated using coords
  <sparsity:sparsity for geom step 4
    nrows_g=12 nrows=12 sparsity=1.0000 nnzs=144, refcount: 9>
  <dData2D:(temp array for extrapolation) n=144 m=1, refcount: 1>
refcount: 1>
No. of atoms with KB's overlaping orbs in proc 0. Max # of overlaps:       6      11

InitMesh: MESH = 60 x 60 x 48 = 172800
InitMesh: Mesh cutoff (required, used) =   100.000   101.336 Ry
New grid distribution [1]: sub = 2

        iscf     Eharris(eV)        E_KS(eV)     FreeEng(eV)     dDmax    Ef(eV) dHmax(eV)
   scf:    1     -926.087310     -925.313866     -925.313866  0.090690 -2.748003  0.927801
   scf:    2     -925.045606     -925.268203     -925.268203  0.091314 -3.237001  1.364176
   scf:    3     -925.412336     -925.369917     -925.369917  0.052024 -2.943440  0.066357
   scf:    4     -925.370082     -925.370001     -925.370001  0.001127 -2.934811  0.048781
   scf:    5     -925.370185     -925.370098     -925.370098  0.002618 -2.919100  0.009260
   scf:    6     -925.370109     -925.370104     -925.370104  0.000514 -2.917414  0.002552
   scf:    7     -925.370105     -925.370105     -925.370105  0.000186 -2.916970  0.000650
   scf:    8     -925.370105     -925.370105     -925.370105  0.000016 -2.917024  0.000431

SCF Convergence by DM+H criterion
max |DM_out - DM_in|         :     0.0000157303
max |H_out - H_in|      (eV) :     0.0004306395
SCF cycle converged after 8 iterations

Using DM_out to compute the final energy and forces
No. of atoms with KB's overlaping orbs in proc 0. Max # of overlaps:       6      11

siesta: E_KS(eV) =             -925.3701

siesta: Atomic forces (eV/Ang):
     1    0.192263   -1.988021    0.152694
     2    2.215944    1.201248    0.249472
     3   -2.375095    1.021619    0.066334
     4   -0.412564    1.913994   -0.591509
     5    2.625385   -1.376181   -0.948928
     6   -2.227178   -0.735765    0.418019
----------------------------------------
   Tot    0.018755    0.036895   -0.653917
----------------------------------------
   Max    2.625385
   Res    1.427200    sqrt( Sum f_i^2 / 3N )
----------------------------------------
   Max    2.625385    constrained

Stress tensor Voigt[x,y,z,yz,xz,xy] (kbar):      -14.91       -6.53       -0.23       -1.32        1.80        0.61
(Free)E + p*V (eV/cell)     -921.8813
Target enthalpy (eV/cell)     -877.0605

siesta: Stress tensor (static) (eV/Ang**3):
        -0.009020    0.000415    0.001073
         0.000416   -0.003955   -0.000783
         0.001073   -0.000783    0.000042

siesta: Pressure (static):          6.90728114  kBar

siesta: Stress tensor (total) (eV/Ang**3):
        -0.009305    0.000378    0.001123
         0.000378   -0.004077   -0.000827
         0.001123   -0.000826   -0.000141

siesta: Pressure (total):          7.22177208  kBar

siesta: E_kin PR =   18474.023 K

siesta: Temp_ion =    1507.164 K

                     ====================================
                        Begin MD step =      5
                     ====================================

outcoor: Atomic coordinates (Ang):                          
    0.02716039   -0.05570799   -0.00594592   1       1  O
    0.81381099    0.72446085    0.06804084   2       2  H
   -0.83723150    0.64169408   -0.00766101   2       3  H
   -0.01783574    0.05854087    2.97892472   1       4  O
    0.71764279   -0.72227178    2.71266971   2       5  H
   -0.84142829   -0.67852112    3.13901891   2       6  H

outcell: Unit cell vectors (Ang):
        9.894955   -0.000162   -0.000043
       -0.000162    9.894843    0.000609
       -0.000054    0.000761    7.865449

outcell: Cell vector modules (Ang)   :    9.894955    9.894843    7.865449
outcell: Cell angles (23,13,12) (deg):     89.9909     90.0006     90.0019
outcell: Cell volume (Ang**3)        :    770.0984
Gamma-point calculation with multiply-connected orbital pairs
Folding of H and S implicitly performed
<dSpData1D:S at geom step 5
  <sparsity:sparsity for geom step 5
    nrows_g=12 nrows=12 sparsity=1.0000 nnzs=144, refcount: 7>
  <dData1D:(new from dSpData1D) n=144, refcount: 1>
refcount: 1>
new_DM -- step:     5
Re-using DM from previous geometries...
Number of DMs in history: 1
 DM extrapolation coefficients: 
1   1.00000
New DM after history re-use:
<dSpData2D:SpM extrapolated using coords
  <sparsity:sparsity for geom step 5
    nrows_g=12 nrows=12 sparsity=1.0000 nnzs=144, refcount: 9>
  <dData2D:(temp array for extrapolation) n=144 m=1, refcount: 1>
refcount: 1>
No. of atoms with KB's overlaping orbs in proc 0. Max # of overlaps:       6      11

InitMesh: MESH = 60 x 60 x 48 = 172800
InitMesh: Mesh cutoff (required, used) =   100.000   101.619 Ry
New grid distribution [1]: sub = 2

        iscf     Eharris(eV)        E_KS(eV)     FreeEng(eV)     dDmax    Ef(eV) dHmax(eV)
   scf:    1     -926.387984     -925.557767     -925.557767  0.134858 -3.402576  1.553210
   scf:    2     -924.368982     -925.304263     -925.304263  0.169944 -4.200864  2.724371
   scf:    3     -925.885493     -925.723219     -925.723219  0.101797 -3.691150  0.110175
   scf:    4     -925.723749     -925.723503     -925.723503  0.001526 -3.673544  0.082478
   scf:    5     -925.724011     -925.723767     -925.723767  0.003081 -3.654657  0.033336
   scf:    6     -925.723878     -925.723827     -925.723827  0.001866 -3.646351  0.005049
   scf:    7     -925.723832     -925.723830     -925.723830  0.000355 -3.645298  0.001294
   scf:    8     -925.723830     -925.723830     -925.723830  0.000052 -3.645269  0.000579

SCF Convergence by DM+H criterion
max |DM_out - DM_in|         :     0.0000518270
max |H_out - H_in|      (eV) :     0.0005786075
SCF cycle converged after 8 iterations

Using DM_out to compute the final energy and forces
No. of atoms with KB's overlaping orbs in proc 0. Max # of overlaps:       6      11

siesta: E_KS(eV) =             -925.7238

siesta: Atomic forces (eV/Ang):
     1    0.016996    0.854230    0.255914
     2   -0.108994   -0.347942    0.078627
     3    0.141987   -0.348504    0.106487
     4   -0.283783   -1.070414   -0.812764
     5    0.239388    0.367667   -0.247793
     6    0.022827    0.587323   -0.019179
----------------------------------------
   Tot    0.028420    0.042361   -0.638709
----------------------------------------
   Max    1.070414
   Res    0.445608    sqrt( Sum f_i^2 / 3N )
----------------------------------------
   Max    1.070414    constrained

Stress tensor Voigt[x,y,z,yz,xz,xy] (kbar):       -2.56        1.81       -0.12       -0.94        0.90        0.31
(Free)E + p*V (eV/cell)     -925.5846
Target enthalpy (eV/cell)     -877.6581

siesta: Stress tensor (static) (eV/Ang**3):
         0.000035    0.000248    0.000247
         0.000248    0.001686   -0.000410
         0.000247   -0.000410    0.000259

siesta: Pressure (static):         -1.05724017  kBar

siesta: Stress tensor (total) (eV/Ang**3):
        -0.001596    0.000195    0.000562
         0.000194    0.001127   -0.000585
         0.000562   -0.000584   -0.000074

siesta: Pressure (total):          0.28974487  kBar

siesta: E_kin PR =   21199.701 K

siesta: Temp_ion =    2065.527 K

                     ====================================
                        Begin MD step =      6
                     ====================================

outcoor: Atomic coordinates (Ang):                          
    0.02947722   -0.06123348   -0.00557088   1       1  O
    0.87968685    0.75557694    0.08431424   2       2  H
   -0.90917174    0.66093237   -0.00239717   2       3  H
   -0.01917946    0.06472919    2.97147975   1       4  O
    0.77238364   -0.75660767    2.65720317   2       5  H
   -0.90550435   -0.70257135    3.15524246   2       6  H

outcell: Unit cell vectors (Ang):
        9.880298   -0.000176   -0.000106
       -0.000176    9.879879    0.000718
       -0.000134    0.000898    7.846327

outcell: Cell vector modules (Ang)   :    9.880298    9.879879    7.846327
outcell: Cell angles (23,13,12) (deg):     89.9893     90.0016     90.0020
outcell: Cell volume (Ang**3)        :    765.9282
Gamma-point calculation with multiply-connected orbital pairs
Folding of H and S implicitly performed
<dSpData1D:S at geom step 6
  <sparsity:sparsity for geom step 6
    nrows_g=12 nrows=12 sparsity=1.0000 nnzs=144, refcount: 7>
  <dData1D:(new from dSpData1D) n=144, refcount: 1>
refcount: 1>
new_DM -- step:     6
Re-using DM from previous geometries...
Number of DMs in history: 1
 DM extrapolation coefficients: 
1   1.00000
New DM after history re-use:
<dSpData2D:SpM extrapolated using coords
  <sparsity:sparsity for geom step 6
    nrows_g=12 nrows=12 sparsity=1.0000 nnzs=144, refcount: 9>
  <dData2D:(temp array for extrapolation) n=144 m=1, refcount: 1>
refcount: 1>
Note: For starting DM, Qtot, Tr[D*S] =         16.00000000         15.96645170
No. of atoms with KB's overlaping orbs in proc 0. Max # of overlaps:       6      11

InitMesh: MESH = 60 x 60 x 48 = 172800
InitMesh: Mesh cutoff (required, used) =   100.000   101.921 Ry
New grid distribution [1]: sub = 2

        iscf     Eharris(eV)        E_KS(eV)     FreeEng(eV)     dDmax    Ef(eV) dHmax(eV)
   scf:    1     -925.763383     -925.188175     -925.188175  0.126627 -0.955074  1.661245
   scf:    2     -923.150269     -924.697078     -924.697078  0.205718 -4.881199  3.417612
   scf:    3     -925.630466     -925.385290     -925.385290  0.130491 -1.216440  0.120355
   scf:    4     -925.386098     -925.385745     -925.385745  0.001834 -1.198470  0.090608
   scf:    5     -925.386384     -925.386076     -925.386076  0.002791 -1.184749  0.043330
   scf:    6     -925.386261     -925.386178     -925.386178  0.002423 -1.175061  0.003868
   scf:    7     -925.386180     -925.386179     -925.386179  0.000238 -1.174408  0.001170
   scf:    8     -925.386179     -925.386179     -925.386179  0.000044 -1.174312  0.000654

SCF Convergence by DM+H criterion
max |DM_out - DM_in|         :     0.0000440540
max |H_out - H_in|      (eV) :     0.0006535557
SCF cycle converged after 8 iterations

Using DM_out to compute the final energy and forces
No. of atoms with KB's overlaping orbs in proc 0. Max # of overlaps:       6      11

siesta: E_KS(eV) =             -925.3862

siesta: Atomic forces (eV/Ang):
     1   -0.088564    2.452401    0.343824
     2   -1.585673   -1.252089   -0.058977
     3    1.742955   -1.111517    0.123962
     4   -0.177949   -2.795114   -0.982603
     5   -1.317041    1.418779    0.302895
     6    1.466637    1.330367   -0.349466
----------------------------------------
   Tot    0.040365    0.042827   -0.620364
----------------------------------------
   Max    2.795114
   Res    1.316704    sqrt( Sum f_i^2 / 3N )
----------------------------------------
   Max    2.795114    constrained

Stress tensor Voigt[x,y,z,yz,xz,xy] (kbar):        7.30        7.46        0.13       -0.45       -0.07        0.15
(Free)E + p*V (eV/cell)     -927.7584
Target enthalpy (eV/cell)     -877.5807

siesta: Stress tensor (static) (eV/Ang**3):
         0.006923    0.000110   -0.000508
         0.000109    0.005336   -0.000046
        -0.000508   -0.000045    0.000507

siesta: Pressure (static):         -6.81788923  kBar

siesta: Stress tensor (total) (eV/Ang**3):
         0.004555    0.000094   -0.000042
         0.000094    0.004653   -0.000281
        -0.000042   -0.000280    0.000083

siesta: Pressure (total):         -4.96219828  kBar

siesta: E_kin PR =   24279.887 K

siesta: Temp_ion =    1595.287 K

                     ====================================
                        Begin MD step =      7
                     ====================================

outcoor: Atomic coordinates (Ang):                          
    0.03173745   -0.06527342   -0.00498759   1       1  O
    0.93028952    0.77462654    0.10001013   2       2  H
   -0.96433049    0.66946015    0.00405330   2       3  H
   -0.02062772    0.06922676    2.96296664   1       4  O
    0.81443529   -0.77728030    2.60421061   2       5  H
   -0.95544313   -0.71380935    3.16761569   2       6  H

outcell: Unit cell vectors (Ang):
        9.864564   -0.000192   -0.000168
       -0.000192    9.863841    0.000831
       -0.000212    0.001039    7.825950

outcell: Cell vector modules (Ang)   :    9.864564    9.863841    7.825950
outcell: Cell angles (23,13,12) (deg):     89.9876     90.0025     90.0022
outcell: Cell volume (Ang**3)        :    761.4844
Gamma-point calculation with multiply-connected orbital pairs
Folding of H and S implicitly performed
<dSpData1D:S at geom step 7
  <sparsity:sparsity for geom step 7
    nrows_g=12 nrows=12 sparsity=1.0000 nnzs=144, refcount: 7>
  <dData1D:(new from dSpData1D) n=144, refcount: 1>
refcount: 1>
new_DM -- step:     7
Re-using DM from previous geometries...
Number of DMs in history: 1
 DM extrapolation coefficients: 
1   1.00000
New DM after history re-use:
<dSpData2D:SpM extrapolated using coords
  <sparsity:sparsity for geom step 7
    nrows_g=12 nrows=12 sparsity=1.0000 nnzs=144, refcount: 9>
  <dData2D:(temp array for extrapolation) n=144 m=1, refcount: 1>
refcount: 1>
Note: For starting DM, Qtot, Tr[D*S] =         16.00000000         15.96558280
No. of atoms with KB's overlaping orbs in proc 0. Max # of overlaps:       6      11

InitMesh: MESH = 60 x 60 x 48 = 172800
InitMesh: Mesh cutoff (required, used) =   100.000   102.247 Ry
New grid distribution [1]: sub = 2

        iscf     Eharris(eV)        E_KS(eV)     FreeEng(eV)     dDmax    Ef(eV) dHmax(eV)
   scf:    1     -925.129279     -924.735162     -924.735162  0.085606 -1.558363  1.264189
   scf:    2     -923.140093     -924.325469     -924.325469  0.171376 -2.162363  2.932634
   scf:    3     -925.025704     -924.852982     -924.852982  0.114287 -1.743101  0.097617
   scf:    4     -924.853567     -924.853302     -924.853302  0.001277 -1.730672  0.071929
   scf:    5     -924.853764     -924.853546     -924.853546  0.002279 -1.720194  0.030775
   scf:    6     -924.853643     -924.853600     -924.853600  0.001652 -1.713778  0.002276
   scf:    7     -924.853601     -924.853600     -924.853600  0.000117 -1.713414  0.000999
   scf:    8     -924.853600     -924.853600     -924.853600  0.000029 -1.713333  0.000544

SCF Convergence by DM+H criterion
max |DM_out - DM_in|         :     0.0000291338
max |H_out - H_in|      (eV) :     0.0005436387
SCF cycle converged after 8 iterations

Using DM_out to compute the final energy and forces
No. of atoms with KB's overlaping orbs in proc 0. Max # of overlaps:       6      11

siesta: E_KS(eV) =             -924.8536

siesta: Atomic forces (eV/Ang):
     1   -0.133620    3.113923    0.395234
     2   -2.344895   -1.651027   -0.147880
     3    2.563618   -1.421337    0.128327
     4   -0.125372   -3.518343   -1.062686
     5   -2.127925    1.885162    0.641241
     6    2.218234    1.631853   -0.554512
----------------------------------------
   Tot    0.050039    0.040230   -0.600275
----------------------------------------
   Max    3.518343
   Res    1.773783    sqrt( Sum f_i^2 / 3N )
----------------------------------------
   Max    3.518343    constrained

Stress tensor Voigt[x,y,z,yz,xz,xy] (kbar):       14.84       10.69        0.51        0.04       -1.02        0.06
(Free)E + p*V (eV/cell)     -928.9798
Target enthalpy (eV/cell)     -877.3255

siesta: Stress tensor (static) (eV/Ang**3):
         0.011145    0.000035   -0.001050
         0.000035    0.007071    0.000214
        -0.001049    0.000215    0.000739

siesta: Pressure (static):        -10.12285121  kBar

siesta: Stress tensor (total) (eV/Ang**3):
         0.009265    0.000039   -0.000634
         0.000039    0.006670    0.000026
        -0.000634    0.000026    0.000321

siesta: Pressure (total):         -8.68169398  kBar

siesta: E_kin PR =   27699.440 K

siesta: Temp_ion =     785.851 K

                     ====================================
                        Begin MD step =      8
                     ====================================

outcoor: Atomic coordinates (Ang):                          
    0.03391337   -0.06742825   -0.00416509   1       1  O
    0.95833948    0.77778688    0.11427566   2       2  H
   -0.99483902    0.66430900    0.01172984   2       3  H
   -0.02214311    0.07159396    2.95333639   1       4  O
    0.83602995   -0.77982352    2.55693830   2       5  H
   -0.98403202   -0.70934922    3.17417124   2       6  H

outcell: Unit cell vectors (Ang):
        9.847675   -0.000208   -0.000217
       -0.000208    9.846701    0.000942
       -0.000273    0.001178    7.804315

outcell: Cell vector modules (Ang)   :    9.847675    9.846701    7.804315
outcell: Cell angles (23,13,12) (deg):     89.9859     90.0033     90.0024
outcell: Cell volume (Ang**3)        :    756.7619
Gamma-point calculation with multiply-connected orbital pairs
Folding of H and S implicitly performed
<dSpData1D:S at geom step 8
  <sparsity:sparsity for geom step 8
    nrows_g=12 nrows=12 sparsity=1.0000 nnzs=144, refcount: 7>
  <dData1D:(new from dSpData1D) n=144, refcount: 1>
refcount: 1>
new_DM -- step:     8
Re-using DM from previous geometries...
Number of DMs in history: 1
 DM extrapolation coefficients: 
1   1.00000
New DM after history re-use:
<dSpData2D:SpM extrapolated using coords
  <sparsity:sparsity for geom step 8
    nrows_g=12 nrows=12 sparsity=1.0000 nnzs=144, refcount: 9>
  <dData2D:(temp array for extrapolation) n=144 m=1, refcount: 1>
refcount: 1>
Note: For starting DM, Qtot, Tr[D*S] =         16.00000000         15.98226728
No. of atoms with KB's overlaping orbs in proc 0. Max # of overlaps:       6      11

InitMesh: MESH = 60 x 60 x 48 = 172800
InitMesh: Mesh cutoff (required, used) =   100.000   102.598 Ry
New grid distribution [1]: sub = 2

        iscf     Eharris(eV)        E_KS(eV)     FreeEng(eV)     dDmax    Ef(eV) dHmax(eV)
   scf:    1     -924.743161     -924.511864     -924.511864  0.030144 -1.863580  0.557215
   scf:    2     -924.167987     -924.421142     -924.421142  0.077418 -2.131208  1.330777
   scf:    3     -924.568446     -924.534032     -924.534032  0.053417 -1.941278  0.049784
   scf:    4     -924.534209     -924.534126     -924.534126  0.000801 -1.937308  0.035304
   scf:    5     -924.534273     -924.534206     -924.534206  0.001567 -1.931366  0.006310
   scf:    6     -924.534210     -924.534208     -924.534208  0.000318 -1.930407  0.001438
   scf:    7     -924.534209     -924.534209     -924.534209  0.000047 -1.930312  0.000683

SCF Convergence by DM+H criterion
max |DM_out - DM_in|         :     0.0000474178
max |H_out - H_in|      (eV) :     0.0006830797
SCF cycle converged after 7 iterations

Using DM_out to compute the final energy and forces
No. of atoms with KB's overlaping orbs in proc 0. Max # of overlaps:       6      11

siesta: E_KS(eV) =             -924.5342

siesta: Atomic forces (eV/Ang):
     1   -0.143091    3.229934    0.410691
     2   -2.658499   -1.744166   -0.197380
     3    2.903403   -1.468974    0.128823
     4   -0.084508   -3.647075   -1.073341
     5   -2.486652    2.005933    0.824477
     6    2.528763    1.661799   -0.669392
----------------------------------------
   Tot    0.059416    0.037450   -0.576122
----------------------------------------
   Max    3.647075
   Res    1.919580    sqrt( Sum f_i^2 / 3N )
----------------------------------------
   Max    3.647075    constrained

Stress tensor Voigt[x,y,z,yz,xz,xy] (kbar):       19.71       11.78        0.95        0.46       -1.81       -0.02
(Free)E + p*V (eV/cell)     -929.6403
Target enthalpy (eV/cell)     -877.3008

siesta: Stress tensor (static) (eV/Ang**3):
         0.013198   -0.000017   -0.001377
        -0.000017    0.007448    0.000364
        -0.001377    0.000365    0.000933

siesta: Pressure (static):        -11.52443836  kBar

siesta: Stress tensor (total) (eV/Ang**3):
         0.012300   -0.000009   -0.001130
        -0.000010    0.007351    0.000284
        -0.001129    0.000284    0.000591

siesta: Pressure (total):        -10.81041349  kBar

siesta: E_kin PR =   31419.483 K

siesta: Temp_ion =     267.913 K

                     ====================================
                        Begin MD step =      9
                     ====================================

outcoor: Atomic coordinates (Ang):                          
    0.03599888   -0.06762774   -0.00309413   1       1  O
    0.96082816    0.76416581    0.12663516   2       2  H
   -0.99743740    0.64502321    0.02063504   2       3  H
   -0.02369689    0.07175086    2.94258221   1       4  O
    0.83373125   -0.76308243    2.51714681   2       5  H
   -0.98828734   -0.68890684    3.17380597   2       6  H

outcell: Unit cell vectors (Ang):
        9.829593   -0.000224   -0.000246
       -0.000224    9.828456    0.001047
       -0.000309    0.001309    7.781421

outcell: Cell vector modules (Ang)   :    9.829593    9.828456    7.781421
outcell: Cell angles (23,13,12) (deg):     89.9843     90.0037     90.0026
outcell: Cell volume (Ang**3)        :    751.7609
Gamma-point calculation with multiply-connected orbital pairs
Folding of H and S implicitly performed
<dSpData1D:S at geom step 9
  <sparsity:sparsity for geom step 9
    nrows_g=12 nrows=12 sparsity=1.0000 nnzs=144, refcount: 7>
  <dData1D:(new from dSpData1D) n=144, refcount: 1>
refcount: 1>
new_DM -- step:     9
Re-using DM from previous geometries...
Number of DMs in history: 1
 DM extrapolation coefficients: 
1   1.00000
New DM after history re-use:
<dSpData2D:SpM extrapolated using coords
  <sparsity:sparsity for geom step 9
    nrows_g=12 nrows=12 sparsity=1.0000 nnzs=144, refcount: 9>
  <dData2D:(temp array for extrapolation) n=144 m=1, refcount: 1>
refcount: 1>
No. of atoms with KB's overlaping orbs in proc 0. Max # of overlaps:       6      11

InitMesh: MESH = 60 x 60 x 48 = 172800
InitMesh: Mesh cutoff (required, used) =   100.000   102.975 Ry
New grid distribution [1]: sub = 2

        iscf     Eharris(eV)        E_KS(eV)     FreeEng(eV)     dDmax    Ef(eV) dHmax(eV)
   scf:    1     -924.478729     -924.591990     -924.591990  0.034096 -1.857515  0.323255
   scf:    2     -924.497761     -924.567249     -924.567249  0.045033 -1.717487  0.733052
   scf:    3     -924.607348     -924.598223     -924.598223  0.031134 -1.819188  0.019969
   scf:    4     -924.598303     -924.598264     -924.598264  0.000849 -1.821211  0.013749
   scf:    5     -924.598326     -924.598299     -924.598299  0.001838 -1.826148  0.002165
   scf:    6     -924.598300     -924.598299     -924.598299  0.000071 -1.826528  0.000964

SCF Convergence by DM+H criterion
max |DM_out - DM_in|         :     0.0000708827
max |H_out - H_in|      (eV) :     0.0009642753
SCF cycle converged after 6 iterations

Using DM_out to compute the final energy and forces
No. of atoms with KB's overlaping orbs in proc 0. Max # of overlaps:       6      11

siesta: E_KS(eV) =             -924.5983

siesta: Atomic forces (eV/Ang):
     1   -0.129114    2.975556    0.389228
     2   -2.664382   -1.621836   -0.211878
     3    2.912110   -1.339813    0.131714
     4   -0.014779   -3.377168   -1.030858
     5   -2.559436    1.904602    0.890466
     6    2.525368    1.494010   -0.714618
----------------------------------------
   Tot    0.069767    0.035350   -0.545947
----------------------------------------
   Max    3.377168
   Res    1.850655    sqrt( Sum f_i^2 / 3N )
----------------------------------------
   Max    3.377168    constrained

Stress tensor Voigt[x,y,z,yz,xz,xy] (kbar):       21.22       10.83        1.34        0.71       -2.30       -0.12
(Free)E + p*V (eV/cell)     -929.8200
Target enthalpy (eV/cell)     -877.6771

siesta: Stress tensor (static) (eV/Ang**3):
         0.013410   -0.000089   -0.001499
        -0.000089    0.006805    0.000407
        -0.001498    0.000408    0.001081

siesta: Pressure (static):        -11.37356689  kBar

siesta: Stress tensor (total) (eV/Ang**3):
         0.013246   -0.000077   -0.001434
        -0.000078    0.006757    0.000445
        -0.001433    0.000445    0.000835

siesta: Pressure (total):        -11.12874176  kBar

siesta: E_kin PR =   35386.666 K

siesta: Temp_ion =     318.933 K

                     ====================================
                        Begin MD step =     10
                     ====================================

outcoor: Atomic coordinates (Ang):                          
    0.03800215   -0.06602537   -0.00178782   1       1  O
    0.93769904    0.73493712    0.13694808   2       2  H
   -0.97204173    0.61284225    0.03079471   2       3  H
   -0.02524495    0.06985930    2.93073006   1       4  O
    0.80684411   -0.72803085    2.48547331   2       5  H
   -0.96823892   -0.65409297    3.16608529   2       6  H

outcell: Unit cell vectors (Ang):
        9.810319   -0.000239   -0.000250
       -0.000239    9.809127    0.001144
       -0.000314    0.001430    7.757267

outcell: Cell vector modules (Ang)   :    9.810319    9.809127    7.757267
outcell: Cell angles (23,13,12) (deg):     89.9828     90.0038     90.0028
outcell: Cell volume (Ang**3)        :    746.4869
Gamma-point calculation with multiply-connected orbital pairs
Folding of H and S implicitly performed
<dSpData1D:S at geom step 10
  <sparsity:sparsity for geom step 10
    nrows_g=12 nrows=12 sparsity=1.0000 nnzs=144, refcount: 7>
  <dData1D:(new from dSpData1D) n=144, refcount: 1>
refcount: 1>
new_DM -- step:    10
Re-using DM from previous geometries...
Number of DMs in history: 1
 DM extrapolation coefficients: 
1   1.00000
New DM after history re-use:
<dSpData2D:SpM extrapolated using coords
  <sparsity:sparsity for geom step 10
    nrows_g=12 nrows=12 sparsity=1.0000 nnzs=144, refcount: 9>
  <dData2D:(temp array for extrapolation) n=144 m=1, refcount: 1>
refcount: 1>
Note: For starting DM, Qtot, Tr[D*S] =         16.00000000         16.03479174
No. of atoms with KB's overlaping orbs in proc 0. Max # of overlaps:       6      11

InitMesh: MESH = 60 x 60 x 48 = 172800
InitMesh: Mesh cutoff (required, used) =   100.000   103.380 Ry
New grid distribution [1]: sub = 2

        iscf     Eharris(eV)        E_KS(eV)     FreeEng(eV)     dDmax    Ef(eV) dHmax(eV)
   scf:    1     -924.258074     -924.945081     -924.945081  0.091081 -1.521387  1.064042
   scf:    2     -923.960598     -924.693244     -924.693244  0.142785 -2.492450  2.342121
   scf:    3     -925.118001     -925.019281     -925.019281  0.098326 -1.369524  0.089189
   scf:    4     -925.019823     -925.019566     -925.019566  0.001943 -1.374058  0.061163
   scf:    5     -925.019954     -925.019776     -925.019776  0.003068 -1.386575  0.014521
   scf:    6     -925.019800     -925.019789     -925.019789  0.000919 -1.392371  0.003630
   scf:    7     -925.019790     -925.019790     -925.019790  0.000099 -1.393098  0.001367
   scf:    8     -925.019790     -925.019790     -925.019790  0.000041 -1.393243  0.000969

SCF Convergence by DM+H criterion
max |DM_out - DM_in|         :     0.0000405608
max |H_out - H_in|      (eV) :     0.0009687031
SCF cycle converged after 8 iterations

Using DM_out to compute the final energy and forces
No. of atoms with KB's overlaping orbs in proc 0. Max # of overlaps:       6      11

siesta: E_KS(eV) =             -925.0198

siesta: Atomic forces (eV/Ang):
     1   -0.089474    2.325720    0.315781
     2   -2.337020   -1.265486   -0.178671
     3    2.560005   -1.025479    0.142425
     4    0.120471   -2.701966   -0.930723
     5   -2.356897    1.586545    0.820218
     6    2.182706    1.113131   -0.676488
----------------------------------------
   Tot    0.079791    0.032466   -0.507458
----------------------------------------
   Max    2.701966
   Res    1.556784    sqrt( Sum f_i^2 / 3N )
----------------------------------------
   Max    2.701966    constrained

Stress tensor Voigt[x,y,z,yz,xz,xy] (kbar):       18.53        7.80        1.58        0.72       -2.30       -0.30
(Free)E + p*V (eV/cell)     -929.3551
Target enthalpy (eV/cell)     -878.4277

siesta: Stress tensor (static) (eV/Ang**3):
         0.011634   -0.000210   -0.001368
        -0.000210    0.005189    0.000315
        -0.001368    0.000316    0.001150

siesta: Pressure (static):         -9.59850357  kBar

siesta: Stress tensor (total) (eV/Ang**3):
         0.011567   -0.000185   -0.001437
        -0.000185    0.004868    0.000450
        -0.001437    0.000451    0.000988

siesta: Pressure (total):         -9.30492519  kBar

siesta: E_kin PR =   39532.210 K

siesta: Temp_ion =     906.276 K

outcell: Unit cell vectors (Ang):
        9.810319   -0.000239   -0.000250
       -0.000239    9.809127    0.001144
       -0.000314    0.001430    7.757267

outcell: Cell vector modules (Ang)   :    9.810319    9.809127    7.757267
outcell: Cell angles (23,13,12) (deg):     89.9828     90.0038     90.0028
outcell: Cell volume (Ang**3)        :    746.4869

siesta: Program's energy decomposition (eV):
siesta: Ebs     =      -180.858456
siesta: Eions   =      1621.026762
siesta: Ena     =       348.428419
siesta: Ekin    =       675.947930
siesta: Enl     =      -109.871104
siesta: Eso     =         0.000000
siesta: Edftu   =         0.000000
siesta: DEna    =        -4.542286
siesta: DUscf   =         2.991039
siesta: DUext   =         0.000000
siesta: Ex      =      -192.298322
siesta: Ec      =       -24.648703
siesta: Exc     =      -216.947025
siesta: EbV     =         0.000000
siesta: eta*DQ  =         0.000000
siesta: Emadel  =         0.000000
siesta: Emeta   =         0.000000
siesta: Emolmec =         0.000000
siesta: Ekinion =         0.585726
siesta: Eharris =      -924.434064
siesta: Etot    =      -924.434064
siesta: FreeEng =      -924.434064

siesta: Final energy (eV):
siesta:  Band Struct. =    -180.858456
siesta:       Kinetic =     675.947930
siesta:       Hartree =     903.906989
siesta:         Edftu =       0.000000
siesta:       Eso     =       0.000000
siesta:    Ext. field =       0.000000
siesta:         Exch. =    -192.298322
siesta:         Corr. =     -24.648703
siesta:     Bulk bias =       0.000000
siesta:   Exch.-corr. =    -216.947025
siesta:  Ion-electron =   -2380.420563
siesta:       Ion-ion =      92.492878
siesta:       Ekinion =       0.585726
siesta: D3 dispersion =       0.000000
siesta:         Total =    -924.434064
siesta:         Fermi =      -1.393243

siesta: Atomic forces (eV/Ang):
siesta:      1   -0.089474    2.325720    0.315781
siesta:      2   -2.337020   -1.265486   -0.178671
siesta:      3    2.560005   -1.025479    0.142425
siesta:      4    0.120471   -2.701966   -0.930723
siesta:      5   -2.356897    1.586545    0.820218
siesta:      6    2.182706    1.113131   -0.676488
siesta: ----------------------------------------
siesta:    Tot    0.079791    0.032466   -0.507458

siesta: Stress tensor (static) (eV/Ang**3):
siesta:     0.011634   -0.000210   -0.001368
siesta:    -0.000210    0.005189    0.000315
siesta:    -0.001368    0.000316    0.001150

siesta: Cell volume =        746.486946 Ang**3

siesta: Pressure (static):
siesta:                Solid            Molecule  Units
siesta:          -0.00006525          0.00000573  Ry/Bohr**3
siesta:          -0.00599091          0.00052598  eV/Ang**3
siesta:          -9.59850357          0.84271400  kBar
(Free)E+ p_basis*V_orbitals  =        -924.369776
(Free)Eharris+ p_basis*V_orbitals  =        -924.369776

siesta: Electric dipole (a.u.)  =   -0.108589    0.011714   -0.000007
siesta: Electric dipole (Debye) =   -0.276006    0.029773   -0.000017

cite: Please see "pr.bib" for an exhaustive BiBTeX file.
cite: Please clearly indicate Siesta version in published work: 5.0.0-alpha-123-gfb8fd7d02
cite: This calculation has made use of the following articles
cite: which are encouraged to be cited in a published work.
        Primary SIESTA paper
          DOI: www.doi.org/10.1088/0953-8984/14/11/302


timer: Elapsed wall time (sec) =       1.639
timer: CPU execution times (sec):

Routine            Calls   Time/call    Tot.time        %
siesta                 1       1.639       1.639   100.00
Setup                  1       0.055       0.055     3.38
bands                  1       0.000       0.000     0.00
KSV_init               1       0.000       0.000     0.00
IterGeom              10       0.158       1.583    96.60
geom_init             10       0.030       0.297    18.14
state_init            10       0.000       0.005     0.29
hsparse               10       0.000       0.000     0.02
overlap               10       0.000       0.002     0.14
Setup_H0              10       0.017       0.171    10.41
naefs                 20       0.000       0.001     0.04
MolMec                20       0.000       0.000     0.00
kinefsm               20       0.000       0.002     0.14
nlefsm                20       0.001       0.014     0.87
DHSCF_Init            10       0.015       0.155     9.45
DHSCF1                10       0.002       0.025     1.50
INITMESH              10       0.000       0.000     0.00
DHSCF2                10       0.013       0.130     7.95
REMESH                10       0.001       0.005     0.32
REORD                286       0.000       0.032     1.95
PHION                 10       0.005       0.046     2.78
COMM_BSC             442       0.000       0.040     2.46
POISON               113       0.005       0.527    32.18
fft                  226       0.002       0.372    22.70
setup_H               93       0.012       1.132    69.04
DHSCF                103       0.013       1.384    84.43
DHSCF3               103       0.012       1.241    75.71
rhoofd               103       0.001       0.056     3.43
XC                   103       0.005       0.475    28.97
GXC-CellXC           103       0.004       0.430    26.23
gridxc@cellXC        103       0.004       0.430    26.21
vmat                 103       0.000       0.049     3.01
IterSCF               83       0.012       1.018    62.10
compute_dm            83       0.000       0.004     0.22
diagon                83       0.000       0.003     0.21
r-eigvec              83       0.000       0.003     0.17
r-buildHS             83       0.000       0.000     0.00
rdiag                 83       0.000       0.003     0.16
rdiag1                83       0.000       0.000     0.02
rdiag2                83       0.000       0.000     0.02
rdiag3                83       0.000       0.001     0.08
rdiag4                83       0.000       0.000     0.01
r-buildD              83       0.000       0.000     0.02
MIXER                 73       0.000       0.000     0.03
PostSCF               10       0.026       0.264    16.13
DHSCF4                10       0.014       0.143     8.72
dfscf                 10       0.010       0.101     6.13
overfsm               10       0.000       0.000     0.02
state_analysis        10       0.000       0.001     0.06
siesta_move           10       0.000       0.002     0.11
Analysis               1       0.000       0.000     0.01
optical                1       0.000       0.000     0.00
  

>> End of run:  28-SEP-2023  15:37:48
Job completed
