Siesta Version  : 5.0.0-alpha-123-gfb8fd7d02
Architecture    : ----
Compiler version: GNU-11.4.0
Compiler flags  : -fallow-argument-mismatch;-O3 -march=native
PP flags        : ----
Libraries       : ----
Parallelisations: none
GEMM3M support
NetCDF support
NetCDF-4 support
Lua support

Runtime information:
* Directory : /home/fnpedron/Siesta/siesta-dev/Tests/09.MolecularDynamics/work/verlet
* Running in serial mode.
>> Start of run:  28-SEP-2023  15:37:25

                           *********************** 
                           *  WELCOME TO SIESTA  * 
                           *********************** 

reinit: Reading from standard input
reinit: Dumping input in INPUT_TMP.39474
************************** Dump of input data file ****************************
%include ../../basejob.fdf
SystemLabel           verlet
MD.TypeOfRun          verlet
MD.InitialTemperature 600 K
************************** End of input data file *****************************

reinit: -----------------------------------------------------------------------
reinit: System Name: Water molecules MD
reinit: -----------------------------------------------------------------------
reinit: System Label: verlet
reinit: -----------------------------------------------------------------------

initatom: Reading input for the pseudopotentials and atomic orbitals ----------
Species number:   1 Atomic number:    8 Label: O
Species number:   2 Atomic number:    1 Label: H


---- Processing specs for species: O
Ground state valence configuration:   2s02  2p04
Reading pseudopotential information in formatted form from:
  /home/fnpedron/Siesta/siesta-dev/Tests/Pseudos/O.psf

---- Processing specs for species: H
Ground state valence configuration:   1s01
Reading pseudopotential information in formatted form from:
  /home/fnpedron/Siesta/siesta-dev/Tests/Pseudos/H.psf

---- Pseudopotential check for O 

Pseudized shells:
2s( 2.00) rc: 1.14
2p( 4.00) rc: 1.14
3d( 0.00) rc: 1.14
4f( 0.00) rc: 1.14
Valence configuration for ps generation: (assumed as above)

---- Pseudopotential check for H 

Pseudized shells:
1s( 1.00) rc: 1.25
2p( 0.00) rc: 1.25
3d( 0.00) rc: 1.25
4f( 0.00) rc: 1.25
Valence configuration for ps generation: (assumed as above)
For O, standard SIESTA heuristics set lmxkb to 2
 (one more than the basis l, including polarization orbitals).
Use PS.lmax or PS.KBprojectors blocks to override.
For H, standard SIESTA heuristics set lmxkb to 1
 (one more than the basis l, including polarization orbitals).
Use PS.lmax or PS.KBprojectors blocks to override.

<basis_specs>
===============================================================================
O                    Z=   8    Mass=  15.999        Charge= 0.17977+309
Lmxo=1 Lmxkb= 2    BasisType=split      Semic=F
L=0  Nsemic=0  Cnfigmx=2
          i=1  nzeta=1  polorb=0  (2s)
            splnorm:   0.15000    
               vcte:    40.000    
               rinn:  -0.90000    
               qcoe:    0.0000    
               qyuk:    0.0000    
               qwid:   0.10000E-01
                rcs:    0.0000    
            lambdas:    1.0000    
L=1  Nsemic=0  Cnfigmx=2
          i=1  nzeta=1  polorb=0  (2p)
            splnorm:   0.15000    
               vcte:    40.000    
               rinn:  -0.90000    
               qcoe:    0.0000    
               qyuk:    0.0000    
               qwid:   0.10000E-01
                rcs:    0.0000    
            lambdas:    1.0000    
-------------------------------------------------------------------------------
L=0  Nkbl=1  erefs: 0.17977+309
L=1  Nkbl=1  erefs: 0.17977+309
L=2  Nkbl=1  erefs: 0.17977+309
===============================================================================
</basis_specs>

Using PAO.SplitTailNorm
atom: Called for O                     (Z =   8)
Maximum radius (at nrval) set to   50.00000 8518

read_vps: Pseudopotential generation method:
read_vps: ATM3      Troullier-Martins                       
Valence charge in pseudo generation:    6.00000

xc_check: Exchange-correlation functional:
xc_check: Ceperley-Alder
V l=0 = -2*Zval/r beyond r=  1.1366
V l=1 = -2*Zval/r beyond r=  1.1332
V l=2 = -2*Zval/r beyond r=  1.1298
All V_l potentials equal beyond r=  1.1355
This should be close to max(r_c) in ps generation
All pots = -2*Zval/r beyond r=  1.1366
Using small-core scheme (local charge) for Vlocal

VLOCAL_FROM_CHLOCAL: 99.0% of the norm of Vloc inside     33.667 Ry
VLOCAL_FROM_CHLOCAL: 99.9% of the norm of Vloc inside     76.727 Ry
atom: Maximum radius for chlocal:    1.37241
atom: Maximum radius for r*vlocal+2*Zval:    1.25469

KBgen: Kleinman-Bylander projectors: 
GHOST: No ghost state for L =  0
   l= 0   rc=  1.293209   el= -1.742414   Ekb=  9.076872   kbcos=  0.325320
GHOST: No ghost state for L =  1
   l= 1   rc=  1.284119   el= -0.676589   Ekb= -8.194485   kbcos= -0.396010
GHOST: No ghost state for L =  2
   l= 2   rc=  1.433152   el=  0.013307   Ekb= -2.071665   kbcos= -0.003690

KBgen: Total number of Kleinman-Bylander projectors:   9
atom: -------------------------------------------------------------------------

atom: SANKEY-TYPE ORBITALS:

SPLIT: Orbitals with angular momentum L= 0

SPLIT: Basis orbitals for state 2s

SPLIT: PAO cut-off radius determined from an
SPLIT: energy shift=  0.010000 Ry
Split based on tail norm

   izeta = 1
                 lambda =    1.000000
                     rc =    3.560943
                 energy =   -1.731321
                kinetic =    1.587329
    potential(screened) =   -3.318651
       potential(ionic) =  -11.260325

SPLIT: Orbitals with angular momentum L= 1

SPLIT: Basis orbitals for state 2p

SPLIT: PAO cut-off radius determined from an
SPLIT: energy shift=  0.010000 Ry
Split based on tail norm

   izeta = 1
                 lambda =    1.000000
                     rc =    4.290924
                 energy =   -0.665565
                kinetic =    4.934810
    potential(screened) =   -5.600376
       potential(ionic) =  -13.346429
atom: Total number of Sankey-type orbitals:  4

atm_pop: Valence configuration (for local Pseudopot. screening):
 2s( 2.00)                                                            
 2p( 4.00)                                                            
Vna: chval, zval:    6.00000   6.00000

Vna:  Cut-off radius for the neutral-atom potential:   4.290924

atom: _________________________________________________________________________

<basis_specs>
===============================================================================
H                    Z=   1    Mass=  1.0080        Charge= 0.17977+309
Lmxo=0 Lmxkb= 1    BasisType=split      Semic=F
L=0  Nsemic=0  Cnfigmx=1
          i=1  nzeta=1  polorb=0  (1s)
            splnorm:   0.15000    
               vcte:    40.000    
               rinn:  -0.90000    
               qcoe:    0.0000    
               qyuk:    0.0000    
               qwid:   0.10000E-01
                rcs:    0.0000    
            lambdas:    1.0000    
-------------------------------------------------------------------------------
L=0  Nkbl=1  erefs: 0.17977+309
L=1  Nkbl=1  erefs: 0.17977+309
===============================================================================
</basis_specs>

Using PAO.SplitTailNorm
atom: Called for H                     (Z =   1)
Maximum radius (at nrval) set to   50.00000 8518

read_vps: Pseudopotential generation method:
read_vps: ATM3      Troullier-Martins                       
Valence charge in pseudo generation:    1.00000

xc_check: Exchange-correlation functional:
xc_check: Ceperley-Alder
V l=0 = -2*Zval/r beyond r=  1.2384
V l=1 = -2*Zval/r beyond r=  1.2321
All V_l potentials equal beyond r=  1.2371
This should be close to max(r_c) in ps generation
All pots = -2*Zval/r beyond r=  1.2384
Using small-core scheme (local charge) for Vlocal

VLOCAL_FROM_CHLOCAL: 99.0% of the norm of Vloc inside     28.363 Ry
VLOCAL_FROM_CHLOCAL: 99.9% of the norm of Vloc inside     64.639 Ry
atom: Maximum radius for chlocal:    1.44620
atom: Maximum radius for r*vlocal+2*Zval:    1.31026

KBgen: Kleinman-Bylander projectors: 
GHOST: No ghost state for L =  0
   l= 0   rc=  1.364142   el= -0.467325   Ekb= -2.009475   kbcos= -0.336680
GHOST: No ghost state for L =  1
   l= 1   rc=  1.430269   el=  0.007562   Ekb= -0.503817   kbcos= -0.022554

KBgen: Total number of Kleinman-Bylander projectors:   4
atom: -------------------------------------------------------------------------

atom: SANKEY-TYPE ORBITALS:

SPLIT: Orbitals with angular momentum L= 0

SPLIT: Basis orbitals for state 1s

SPLIT: PAO cut-off radius determined from an
SPLIT: energy shift=  0.010000 Ry
Split based on tail norm

   izeta = 1
                 lambda =    1.000000
                     rc =    5.285354
                 energy =   -0.456120
                kinetic =    0.900445
    potential(screened) =   -1.356565
       potential(ionic) =   -1.890080
atom: Total number of Sankey-type orbitals:  1

atm_pop: Valence configuration (for local Pseudopot. screening):
 1s( 1.00)                                                            
Vna: chval, zval:    1.00000   1.00000

Vna:  Cut-off radius for the neutral-atom potential:   5.285354

atom: _________________________________________________________________________

prinput: Basis input 

PAO.BasisType split     

%block ChemicalSpeciesLabel
    1    8 O                       # Species index, atomic number, species label
    2    1 H                       # Species index, atomic number, species label
%endblock ChemicalSpeciesLabel

%block PAO.Basis                 # Define Basis set
# WARNING: This information might be incomplete!
O                     2                    # Species label, number of l-shells
 n=2   0   1                         # n, l, Nzeta 
   3.561   
   1.000   
 n=2   1   1                         # n, l, Nzeta 
   4.291   
   1.000   
H                     1                    # Species label, number of l-shells
 n=1   0   1                         # n, l, Nzeta 
   5.285   
   1.000   
%endblock PAO.Basis

prinput: ----------------------------------------------------------------------

Dumping basis to NetCDF file O.ion.nc
Dumping basis to NetCDF file H.ion.nc
coor:   Atomic-coordinates input format  =     Cartesian coordinates
coor:                                          (in Angstroms)

siesta: WARNING: XV file not found

siesta: Atomic coordinates (Bohr) and species
siesta:      0.00000   0.00000   0.00000  1        1
siesta:      1.43052   1.10738   0.00000  2        2
siesta:     -1.43052   1.10738   0.00000  2        3
siesta:      0.00000   0.00000   5.66918  1        4
siesta:      1.43052  -1.10738   5.66918  2        5
siesta:     -1.43052  -1.10738   5.66918  2        6

siesta: System type = chain     

initatomlists: Number of atoms, orbitals, and projectors:      6    12    34

siesta: ******************** Simulation parameters ****************************
siesta:
siesta: The following are some of the parameters of the simulation.
siesta: A complete list of the parameters used, including default values,
siesta: can be found in file out.fdf
siesta:
redata: Spin configuration                          = none
redata: Number of spin components                   = 1
redata: Time-Reversal Symmetry                      = T
redata: Spin spiral                                 = F
redata: Long output                                 =   F
redata: Number of Atomic Species                    =        2
redata: Charge density info will appear in .RHO file
redata: Write Mulliken Pop.                         = NO
redata: Matel table size (NRTAB)                    =     1024
redata: Mesh Cutoff                                 =   100.0000 Ry
redata: Net charge of the system                    =     0.0000 |e|
redata: Min. number of SCF Iter                     =        0
redata: Max. number of SCF Iter                     =     1000
redata: SCF convergence failure will abort job
redata: SCF mix quantity                            = Hamiltonian
redata: Mix DM or H after convergence               =   F
redata: Recompute H after scf cycle                 =   F
redata: Mix DM in first SCF step                    =   T
redata: Write Pulay info on disk                    =   F
redata: New DM Occupancy tolerance                  = 0.000000000001
redata: No kicks to SCF
redata: DM Mixing Weight for Kicks                  =     0.5000
redata: Require Harris convergence for SCF          =   F
redata: Harris energy tolerance for SCF             =     0.000100 eV
redata: Require DM convergence for SCF              =   T
redata: DM tolerance for SCF                        =     0.000100
redata: Require EDM convergence for SCF             =   F
redata: EDM tolerance for SCF                       =     0.001000 eV
redata: Require H convergence for SCF               =   T
redata: Hamiltonian tolerance for SCF               =     0.001000 eV
redata: Require (free) Energy convergence for SCF   =   F
redata: (free) Energy tolerance for SCF             =     0.000100 eV
redata: Using DFT-D3 dispersion                     =   F
redata: Using Saved Data (generic)                  =   F
redata: Use continuation files for DM               =   F
redata: Neglect nonoverlap interactions             =   F
redata: Method of Calculation                       = Diagonalization
redata: Electronic Temperature                      =   299.9863 K
redata: Fix the spin of the system                  =   F
redata: Max. number of TDED Iter                    =        1
redata: Number of TDED substeps                     =        3
redata: Dynamics option                             = Verlet MD run
redata: Initial MD time step                        =        1
redata:   Final MD time step                        =       10
redata: Length of MD time step                      =     1.0000 fs
redata: Initial Temperature of MD run               =   600.0000 K
redata: Perform a MD quench                         =   F
mix.SCF: Pulay mixing                            = Pulay
mix.SCF:    Variant                              = stable
mix.SCF:    History steps                        = 2
mix.SCF:    Linear mixing weight                 =     0.250000
mix.SCF:    Mixing weight                        =     0.250000
mix.SCF:    SVD condition                        = 0.1000E-07
redata: Save all siesta data in one NC              =   F
redata: ***********************************************************************

%block SCF.Mixers
  Pulay
%endblock SCF.Mixers

%block SCF.Mixer.Pulay
  # Mixing method
  method pulay
  variant stable

  # Mixing options
  weight 0.2500
  weight.linear 0.2500
  history 2
%endblock SCF.Mixer.Pulay

Size of DM history Fstack: 1
Total number of electrons:    16.000000
Total ionic charge:    16.000000

siesta: k-grid: Number of k-points = 1
siesta: k-point is Gamma-only

diag: Algorithm                                     = D&C
diag: Used triangular part                          = Lower
diag: Absolute tolerance                            =  0.100E-15
diag: Orthogonalization factor                      =  0.100E-05
diag: Memory factor                                 =  1.0000


ts: **************************************************************
ts: Save H and S matrices                           =    F
ts: Save DM and EDM matrices                        =    F
ts: Only save the overlap matrix S                  =    F
ts: **************************************************************

************************ Begin: TS CHECKS AND WARNINGS ************************
************************ End: TS CHECKS AND WARNINGS **************************


                     ====================================
                        Begin MD step =      1
                     ====================================

outcoor: Atomic coordinates (Ang):                          
    0.00000000    0.00000000    0.00000000   1       1  O
    0.75700000    0.58600000    0.00000000   2       2  H
   -0.75700000    0.58600000    0.00000000   2       3  H
    0.00000000    0.00000000    3.00000000   1       4  O
    0.75700000   -0.58600000    3.00000000   2       5  H
   -0.75700000   -0.58600000    3.00000000   2       6  H

outcell: Unit cell vectors (Ang):
       10.000000    0.000000    0.000000
        0.000000   10.000000    0.000000
        0.000000    0.000000    8.000000

outcell: Cell vector modules (Ang)   :   10.000000   10.000000    8.000000
outcell: Cell angles (23,13,12) (deg):     90.0000     90.0000     90.0000
outcell: Cell volume (Ang**3)        :    800.0000
Gamma-point calculation with multiply-connected orbital pairs
Folding of H and S implicitly performed
<dSpData1D:S at geom step 1
  <sparsity:sparsity for geom step 1
    nrows_g=12 nrows=12 sparsity=1.0000 nnzs=144, refcount: 7>
  <dData1D:(new from dSpData1D) n=144, refcount: 1>
refcount: 1>
new_DM -- step:     1
Initializing Density Matrix...
DM filled with atomic data:
<dSpData2D:DM initialized from atoms
  <sparsity:sparsity for geom step 1
    nrows_g=12 nrows=12 sparsity=1.0000 nnzs=144, refcount: 8>
  <dData2D:DM n=144 m=1, refcount: 1>
refcount: 1>
No. of atoms with KB's overlaping orbs in proc 0. Max # of overlaps:       6      11

InitMesh: MESH = 64 x 64 x 50 = 204800
InitMesh: Mesh cutoff (required, used) =   100.000   107.960 Ry
New grid distribution [1]: sub = 2

stepf: Fermi-Dirac step function

siesta: Program's energy decomposition (eV):
siesta: Ebs     =      -150.860226
siesta: Eions   =      1621.026762
siesta: Ena     =       348.311589
siesta: Ekin    =       762.029177
siesta: Enl     =      -142.322504
siesta: Eso     =         0.000000
siesta: Edftu   =         0.000000
siesta: DEna    =       -43.394775
siesta: DUscf   =         8.145612
siesta: DUext   =         0.000000
siesta: Ex      =      -208.215598
siesta: Ec      =       -25.484600
siesta: Exc     =      -233.700198
siesta: EbV     =         0.000000
siesta: eta*DQ  =         0.000000
siesta: Emadel  =         0.000000
siesta: Emeta   =         0.000000
siesta: Emolmec =         0.000000
siesta: Ekinion =         0.000000
siesta: Eharris =      -912.757638
siesta: Etot    =      -921.957860
siesta: FreeEng =      -921.957860

        iscf     Eharris(eV)        E_KS(eV)     FreeEng(eV)     dDmax    Ef(eV) dHmax(eV)
   scf:    1     -912.757638     -921.957860     -921.957860  0.733417 -3.359648  7.697499
timer: Routine,Calls,Time,% = IterSCF        1       0.015  12.29
   scf:    2     -925.019859     -923.619429     -923.619429  0.139222 -2.405659  4.176372
   scf:    3     -924.515320     -924.243189     -924.243189  0.153954 -1.356709  0.720183
   scf:    4     -924.257341     -924.250596     -924.250596  0.006996 -1.425281  0.533465
   scf:    5     -924.260059     -924.255895     -924.255895  0.015005 -1.528642  0.167600
   scf:    6     -924.256792     -924.256358     -924.256358  0.004055 -1.533824  0.094733
   scf:    7     -924.256616     -924.256507     -924.256507  0.002845 -1.530644  0.020744
   scf:    8     -924.256536     -924.256523     -924.256523  0.000334 -1.526977  0.014933
   scf:    9     -924.256536     -924.256531     -924.256531  0.000297 -1.523110  0.009254
   scf:   10     -924.256533     -924.256532     -924.256532  0.000152 -1.522419  0.005779
   scf:   11     -924.256533     -924.256533     -924.256533  0.000228 -1.521732  0.001906
   scf:   12     -924.256533     -924.256533     -924.256533  0.000028 -1.521803  0.001144
   scf:   13     -924.256533     -924.256533     -924.256533  0.000017 -1.521890  0.000403

SCF Convergence by DM+H criterion
max |DM_out - DM_in|         :     0.0000168156
max |H_out - H_in|      (eV) :     0.0004032171
SCF cycle converged after 13 iterations

Using DM_out to compute the final energy and forces
No. of atoms with KB's overlaping orbs in proc 0. Max # of overlaps:       6      11

siesta: E_KS(eV) =             -924.2565

siesta: E_KS - E_eggbox =      -924.2565

siesta: Atomic forces (eV/Ang):
     1   -0.000000   -7.298057   -0.083748
     2    4.939654    3.545499    0.122935
     3   -4.939654    3.545499    0.122935
     4   -0.000000    7.275470    0.989242
     5    4.938269   -3.544015   -0.118804
     6   -4.938269   -3.544015   -0.118804
----------------------------------------
   Tot   -0.000000   -0.019620    0.913758
----------------------------------------
   Max    7.298057
   Res    3.764400    sqrt( Sum f_i^2 / 3N )
----------------------------------------
   Max    7.298057    constrained

Stress tensor Voigt[x,y,z,yz,xz,xy] (kbar):      -30.16      -17.49       -0.18       -0.78        0.19        0.34
(Free)E + p*V (eV/cell)     -916.2955
Target enthalpy (eV/cell)     -924.2565

siesta: Stress tensor (static) (eV/Ang**3):
        -0.018671   -0.000000    0.000000
        -0.000000   -0.010591   -0.000359
        -0.000000   -0.000359    0.000377

siesta: Pressure (static):         15.42593083  kBar

siesta: Stress tensor (total) (eV/Ang**3):
        -0.018824    0.000215    0.000120
         0.000215   -0.010919   -0.000490
         0.000120   -0.000490   -0.000111

siesta: Pressure (total):         15.94367420  kBar

siesta: Temp_ion =     600.000 K

                     ====================================
                        Begin MD step =      2
                     ====================================

outcoor: Atomic coordinates (Ang):                          
    0.00437155   -0.01015785   -0.00202542   1       1  O
    0.77296092    0.61441760   -0.00267091   2       2  H
   -0.77287930    0.59449114   -0.01782733   2       3  H
   -0.00206720    0.00731436    3.00223578   1       4  O
    0.76468461   -0.58186329    2.97195907   2       5  H
   -0.80134090   -0.58200750    3.04957348   2       6  H

outcell: Unit cell vectors (Ang):
       10.000000    0.000000    0.000000
        0.000000   10.000000    0.000000
        0.000000    0.000000    8.000000

outcell: Cell vector modules (Ang)   :   10.000000   10.000000    8.000000
outcell: Cell angles (23,13,12) (deg):     90.0000     90.0000     90.0000
outcell: Cell volume (Ang**3)        :    800.0000
Gamma-point calculation with multiply-connected orbital pairs
Folding of H and S implicitly performed
<dSpData1D:S at geom step 2
  <sparsity:sparsity for geom step 2
    nrows_g=12 nrows=12 sparsity=1.0000 nnzs=144, refcount: 7>
  <dData1D:(new from dSpData1D) n=144, refcount: 1>
refcount: 1>
new_DM -- step:     2
Re-using DM from previous geometries...
Number of DMs in history: 1
 DM extrapolation coefficients: 
1   1.00000
New DM after history re-use:
<dSpData2D:SpM extrapolated using coords
  <sparsity:sparsity for geom step 2
    nrows_g=12 nrows=12 sparsity=1.0000 nnzs=144, refcount: 9>
  <dData2D:(temp array for extrapolation) n=144 m=1, refcount: 1>
refcount: 1>
No. of atoms with KB's overlaping orbs in proc 0. Max # of overlaps:       6      11

InitMesh: MESH = 64 x 64 x 50 = 204800
InitMesh: Mesh cutoff (required, used) =   100.000   107.960 Ry
New grid distribution [1]: sub = 2

        iscf     Eharris(eV)        E_KS(eV)     FreeEng(eV)     dDmax    Ef(eV) dHmax(eV)
   scf:    1     -925.225654     -924.785703     -924.785703  0.077957 -1.658125  0.654384
   scf:    2     -924.730432     -924.780542     -924.780542  0.054173 -1.977022  0.832393
   scf:    3     -924.815346     -924.804487     -924.804487  0.029482 -1.802910  0.041601
   scf:    4     -924.804588     -924.804539     -924.804539  0.000784 -1.802064  0.030717
   scf:    5     -924.804636     -924.804591     -924.804591  0.001869 -1.801203  0.004196
   scf:    6     -924.804594     -924.804593     -924.804593  0.000178 -1.801506  0.001815
   scf:    7     -924.804593     -924.804593     -924.804593  0.000126 -1.801716  0.000831
   scf:    8     -924.804593     -924.804593     -924.804593  0.000028 -1.801722  0.000513

SCF Convergence by DM+H criterion
max |DM_out - DM_in|         :     0.0000275748
max |H_out - H_in|      (eV) :     0.0005134137
SCF cycle converged after 8 iterations

Using DM_out to compute the final energy and forces
No. of atoms with KB's overlaping orbs in proc 0. Max # of overlaps:       6      11

siesta: E_KS(eV) =             -924.8046

siesta: Atomic forces (eV/Ang):
     1    0.338183   -5.200574    0.065960
     2    3.320576    2.493527    0.116226
     3   -3.650869    2.633848    0.048076
     4   -1.347760    5.712334    0.982446
     5    4.289277   -3.370605   -0.297581
     6   -2.948136   -2.241466    0.076629
----------------------------------------
   Tot    0.001273    0.027064    0.991756
----------------------------------------
   Max    5.712334
   Res    2.825202    sqrt( Sum f_i^2 / 3N )
----------------------------------------
   Max    5.712334    constrained

Stress tensor Voigt[x,y,z,yz,xz,xy] (kbar):      -22.31      -13.76       -0.30       -0.68        0.66        2.19
(Free)E + p*V (eV/cell)     -918.7517
Target enthalpy (eV/cell)     -924.8046

siesta: Stress tensor (static) (eV/Ang**3):
        -0.013769    0.001155    0.000295
         0.001155   -0.008262   -0.000291
         0.000295   -0.000292    0.000302

siesta: Pressure (static):         11.60460824  kBar

siesta: Stress tensor (total) (eV/Ang**3):
        -0.013922    0.001369    0.000415
         0.001370   -0.008589   -0.000422
         0.000415   -0.000422   -0.000187

siesta: Pressure (total):         12.12235161  kBar

siesta: Temp_ion =    1320.428 K

                     ====================================
                        Begin MD step =      3
                     ====================================

outcoor: Atomic coordinates (Ang):                          
    0.00894704   -0.02345201   -0.00401106   1       1  O
    0.82070626    0.66670314   -0.00422932   2       2  H
   -0.82370456    0.62819336   -0.03519448   2       3  H
   -0.00494719    0.01807367    3.00506405   1       4  O
    0.81342600   -0.60998987    2.94106972   2       5  H
   -0.87390123   -0.59947022    3.09988045   2       6  H

outcell: Unit cell vectors (Ang):
       10.000000    0.000000    0.000000
        0.000000   10.000000    0.000000
        0.000000    0.000000    8.000000

outcell: Cell vector modules (Ang)   :   10.000000   10.000000    8.000000
outcell: Cell angles (23,13,12) (deg):     90.0000     90.0000     90.0000
outcell: Cell volume (Ang**3)        :    800.0000
Gamma-point calculation with multiply-connected orbital pairs
Folding of H and S implicitly performed
<dSpData1D:S at geom step 3
  <sparsity:sparsity for geom step 3
    nrows_g=12 nrows=12 sparsity=1.0000 nnzs=144, refcount: 7>
  <dData1D:(new from dSpData1D) n=144, refcount: 1>
refcount: 1>
new_DM -- step:     3
Re-using DM from previous geometries...
Number of DMs in history: 1
 DM extrapolation coefficients: 
1   1.00000
New DM after history re-use:
<dSpData2D:SpM extrapolated using coords
  <sparsity:sparsity for geom step 3
    nrows_g=12 nrows=12 sparsity=1.0000 nnzs=144, refcount: 9>
  <dData2D:(temp array for extrapolation) n=144 m=1, refcount: 1>
refcount: 1>
Note: For starting DM, Qtot, Tr[D*S] =         16.00000000         15.96534661
No. of atoms with KB's overlaping orbs in proc 0. Max # of overlaps:       6      11

InitMesh: MESH = 64 x 64 x 50 = 204800
InitMesh: Mesh cutoff (required, used) =   100.000   107.960 Ry
New grid distribution [1]: sub = 2

        iscf     Eharris(eV)        E_KS(eV)     FreeEng(eV)     dDmax    Ef(eV) dHmax(eV)
   scf:    1     -926.250892     -925.395379     -925.395379  0.180211 -2.250431  1.788825
   scf:    2     -924.535521     -925.244646     -925.244646  0.171905 -3.206686  2.684484
   scf:    3     -925.704371     -925.567227     -925.567227  0.095688 -2.639254  0.102841
   scf:    4     -925.567588     -925.567422     -925.567422  0.001394 -2.625973  0.077507
   scf:    5     -925.567750     -925.567592     -925.567592  0.002745 -2.613835  0.034411
   scf:    6     -925.567681     -925.567636     -925.567636  0.001858 -2.608690  0.007932
   scf:    7     -925.567644     -925.567641     -925.567641  0.000518 -2.607857  0.002532
   scf:    8     -925.567641     -925.567641     -925.567641  0.000098 -2.607871  0.000852

SCF Convergence by DM+H criterion
max |DM_out - DM_in|         :     0.0000979651
max |H_out - H_in|      (eV) :     0.0008517323
SCF cycle converged after 8 iterations

Using DM_out to compute the final energy and forces
No. of atoms with KB's overlaping orbs in proc 0. Max # of overlaps:       6      11

siesta: E_KS(eV) =             -925.5676

siesta: Atomic forces (eV/Ang):
     1    0.305005   -1.411330    0.120093
     2    0.625658    0.638752    0.099308
     3   -0.913191    0.811890    0.072512
     4   -1.274705    2.249495    1.037765
     5    1.329902   -1.632147   -0.219132
     6   -0.069025   -0.619673   -0.057048
----------------------------------------
   Tot    0.003643    0.036987    1.053498
----------------------------------------
   Max    2.249495
   Res    0.973013    sqrt( Sum f_i^2 / 3N )
----------------------------------------
   Max    2.249495    constrained

Stress tensor Voigt[x,y,z,yz,xz,xy] (kbar):       -6.21       -6.17       -0.47       -0.64        0.94        2.03
(Free)E + p*V (eV/cell)     -923.4290
Target enthalpy (eV/cell)     -925.5676

siesta: Stress tensor (static) (eV/Ang**3):
        -0.002996    0.001195    0.000135
         0.001195   -0.003099   -0.000359
         0.000135   -0.000360    0.000209

siesta: Pressure (static):          3.14364057  kBar

siesta: Stress tensor (total) (eV/Ang**3):
        -0.003878    0.001267    0.000588
         0.001267   -0.003848   -0.000398
         0.000588   -0.000398   -0.000293

siesta: Pressure (total):          4.28304556  kBar

siesta: Temp_ion =    2405.735 K

                     ====================================
                        Begin MD step =      4
                     ====================================

outcoor: Atomic coordinates (Ang):                          
    0.01370648   -0.03759731   -0.00592427   1       1  O
    0.87444037    0.72510278   -0.00483715   2       2  H
   -0.88327086    0.66966695   -0.05186756   2       3  H
   -0.00859592    0.03018958    3.00851816   1       4  O
    0.87489716   -0.65373929    2.90808284   2       5  H
   -0.94712226   -0.62286443    3.14964136   2       6  H

outcell: Unit cell vectors (Ang):
       10.000000    0.000000    0.000000
        0.000000   10.000000    0.000000
        0.000000    0.000000    8.000000

outcell: Cell vector modules (Ang)   :   10.000000   10.000000    8.000000
outcell: Cell angles (23,13,12) (deg):     90.0000     90.0000     90.0000
outcell: Cell volume (Ang**3)        :    800.0000
Gamma-point calculation with multiply-connected orbital pairs
Folding of H and S implicitly performed
<dSpData1D:S at geom step 4
  <sparsity:sparsity for geom step 4
    nrows_g=12 nrows=12 sparsity=1.0000 nnzs=144, refcount: 7>
  <dData1D:(new from dSpData1D) n=144, refcount: 1>
refcount: 1>
new_DM -- step:     4
Re-using DM from previous geometries...
Number of DMs in history: 1
 DM extrapolation coefficients: 
1   1.00000
New DM after history re-use:
<dSpData2D:SpM extrapolated using coords
  <sparsity:sparsity for geom step 4
    nrows_g=12 nrows=12 sparsity=1.0000 nnzs=144, refcount: 9>
  <dData2D:(temp array for extrapolation) n=144 m=1, refcount: 1>
refcount: 1>
Note: For starting DM, Qtot, Tr[D*S] =         16.00000000         15.94425029
No. of atoms with KB's overlaping orbs in proc 0. Max # of overlaps:       6      11

InitMesh: MESH = 64 x 64 x 50 = 204800
InitMesh: Mesh cutoff (required, used) =   100.000   107.960 Ry
New grid distribution [1]: sub = 2

        iscf     Eharris(eV)        E_KS(eV)     FreeEng(eV)     dDmax    Ef(eV) dHmax(eV)
   scf:    1     -925.714525     -925.165825     -925.165825  0.211831 -3.115111  2.352165
   scf:    2     -922.423823     -924.556233     -924.556233  0.271674 -4.365975  4.331538
   scf:    3     -925.877502     -925.506904     -925.506904  0.162038 -3.562959  0.136549
   scf:    4     -925.507981     -925.507575     -925.507575  0.003236 -3.534668  0.103981
   scf:    5     -925.508223     -925.507907     -925.507907  0.002707 -3.521492  0.061552
   scf:    6     -925.508248     -925.508092     -925.508092  0.003760 -3.506058  0.005862
   scf:    7     -925.508096     -925.508094     -925.508094  0.000326 -3.505288  0.002041
   scf:    8     -925.508095     -925.508094     -925.508094  0.000090 -3.505100  0.001004
   scf:    9     -925.508095     -925.508094     -925.508094  0.000019 -3.505027  0.000628

SCF Convergence by DM+H criterion
max |DM_out - DM_in|         :     0.0000190225
max |H_out - H_in|      (eV) :     0.0006279824
SCF cycle converged after 9 iterations

Using DM_out to compute the final energy and forces
No. of atoms with KB's overlaping orbs in proc 0. Max # of overlaps:       6      11

siesta: E_KS(eV) =             -925.5081

siesta: Atomic forces (eV/Ang):
     1    0.133713    1.420750    0.128373
     2   -1.219305   -0.766193    0.075705
     3    1.113543   -0.584516    0.144876
     4   -0.685745   -0.365344    1.006516
     5   -1.131335   -0.064582    0.029258
     6    1.794195    0.369391   -0.305602
----------------------------------------
   Tot    0.005067    0.009505    1.079125
----------------------------------------
   Max    1.794195
   Res    0.819408    sqrt( Sum f_i^2 / 3N )
----------------------------------------
   Max    1.794195    constrained

Stress tensor Voigt[x,y,z,yz,xz,xy] (kbar):        6.48       -0.04       -0.55       -0.76        0.51        1.37
(Free)E + p*V (eV/cell)     -926.4883
Target enthalpy (eV/cell)     -925.5081

siesta: Stress tensor (static) (eV/Ang**3):
         0.005936    0.000676   -0.000311
         0.000676    0.001444   -0.000419
        -0.000311   -0.000419    0.000183

siesta: Pressure (static):         -4.03895882  kBar

siesta: Stress tensor (total) (eV/Ang**3):
         0.004044    0.000855    0.000320
         0.000854   -0.000025   -0.000474
         0.000320   -0.000474   -0.000344

siesta: Pressure (total):         -1.96303691  kBar

siesta: Temp_ion =    2366.403 K

                     ====================================
                        Begin MD step =      5
                     ====================================

outcoor: Atomic coordinates (Ang):                          
    0.01854655   -0.05088579   -0.00776007   1       1  O
    0.91650335    0.77616846   -0.00472034   2       2  H
   -0.93217836    0.70554558   -0.06715388   2       3  H
   -0.01265821    0.04208517    3.01257928   1       4  O
    0.92553923   -0.69810688    2.87537602   2       5  H
   -1.00316934   -0.64272284    3.19647705   2       6  H

outcell: Unit cell vectors (Ang):
       10.000000    0.000000    0.000000
        0.000000   10.000000    0.000000
        0.000000    0.000000    8.000000

outcell: Cell vector modules (Ang)   :   10.000000   10.000000    8.000000
outcell: Cell angles (23,13,12) (deg):     90.0000     90.0000     90.0000
outcell: Cell volume (Ang**3)        :    800.0000
Gamma-point calculation with multiply-connected orbital pairs
Folding of H and S implicitly performed
<dSpData1D:S at geom step 5
  <sparsity:sparsity for geom step 5
    nrows_g=12 nrows=12 sparsity=1.0000 nnzs=144, refcount: 7>
  <dData1D:(new from dSpData1D) n=144, refcount: 1>
refcount: 1>
new_DM -- step:     5
Re-using DM from previous geometries...
Number of DMs in history: 1
 DM extrapolation coefficients: 
1   1.00000
New DM after history re-use:
<dSpData2D:SpM extrapolated using coords
  <sparsity:sparsity for geom step 5
    nrows_g=12 nrows=12 sparsity=1.0000 nnzs=144, refcount: 9>
  <dData2D:(temp array for extrapolation) n=144 m=1, refcount: 1>
refcount: 1>
Note: For starting DM, Qtot, Tr[D*S] =         16.00000000         15.94100841
No. of atoms with KB's overlaping orbs in proc 0. Max # of overlaps:       6      11

InitMesh: MESH = 64 x 64 x 50 = 204800
InitMesh: Mesh cutoff (required, used) =   100.000   107.960 Ry
New grid distribution [1]: sub = 2

        iscf     Eharris(eV)        E_KS(eV)     FreeEng(eV)     dDmax    Ef(eV) dHmax(eV)
   scf:    1     -924.866389     -924.608766     -924.608766  0.178864 -2.382405  2.191393
   scf:    2     -920.746761     -923.648981     -923.648981  0.288849 -5.068144  4.777796
   scf:    3     -925.394911     -924.937674     -924.937674  0.184626 -2.747715  0.140978
   scf:    4     -924.939136     -924.938627     -924.938627  0.003695 -2.718709  0.104496
   scf:    5     -924.939350     -924.938998     -924.938998  0.002480 -2.707654  0.063720
   scf:    6     -924.939380     -924.939210     -924.939210  0.003792 -2.691553  0.003935
   scf:    7     -924.939211     -924.939210     -924.939210  0.000121 -2.691259  0.002295
   scf:    8     -924.939211     -924.939210     -924.939210  0.000075 -2.690978  0.000960

SCF Convergence by DM+H criterion
max |DM_out - DM_in|         :     0.0000754974
max |H_out - H_in|      (eV) :     0.0009597310
SCF cycle converged after 8 iterations

Using DM_out to compute the final energy and forces
No. of atoms with KB's overlaping orbs in proc 0. Max # of overlaps:       6      11

siesta: E_KS(eV) =             -924.9392

siesta: Atomic forces (eV/Ang):
     1   -0.006569    3.021795    0.137401
     2   -2.123169   -1.589855    0.055602
     3    2.166279   -1.386757    0.211291
     4   -0.273964   -1.836363    0.913576
     5   -2.431585    0.887854    0.263063
     6    2.674387    0.879890   -0.515624
----------------------------------------
   Tot    0.005378   -0.023437    1.065308
----------------------------------------
   Max    3.021795
   Res    1.529228    sqrt( Sum f_i^2 / 3N )
----------------------------------------
   Max    3.021795    constrained

Stress tensor Voigt[x,y,z,yz,xz,xy] (kbar):       15.09        4.72       -0.47       -0.90       -0.28        0.79
(Free)E + p*V (eV/cell)     -928.1579
Target enthalpy (eV/cell)     -924.9392

siesta: Stress tensor (static) (eV/Ang**3):
         0.011136    0.000188   -0.000758
         0.000188    0.004536   -0.000445
        -0.000758   -0.000445    0.000222

siesta: Pressure (static):         -8.48811054  kBar

siesta: Stress tensor (total) (eV/Ang**3):
         0.009418    0.000492   -0.000173
         0.000492    0.002946   -0.000562
        -0.000173   -0.000562   -0.000293

siesta: Pressure (total):         -6.44612809  kBar

siesta: Temp_ion =    1545.424 K

                     ====================================
                        Begin MD step =      6
                     ====================================

outcoor: Atomic coordinates (Ang):                          
    0.02338266   -0.06235191   -0.00951300   1       1  O
    0.93824345    0.81201611   -0.00407131   2       2  H
   -0.96035033    0.72815023   -0.08041774   2       3  H
   -0.01688571    0.05287329    3.01719134   1       4  O
    0.95290626   -0.73397597    2.84518722   2       5  H
   -1.03361730   -0.65415898    3.23837721   2       6  H

outcell: Unit cell vectors (Ang):
       10.000000    0.000000    0.000000
        0.000000   10.000000    0.000000
        0.000000    0.000000    8.000000

outcell: Cell vector modules (Ang)   :   10.000000   10.000000    8.000000
outcell: Cell angles (23,13,12) (deg):     90.0000     90.0000     90.0000
outcell: Cell volume (Ang**3)        :    800.0000
Gamma-point calculation with multiply-connected orbital pairs
Folding of H and S implicitly performed
<dSpData1D:S at geom step 6
  <sparsity:sparsity for geom step 6
    nrows_g=12 nrows=12 sparsity=1.0000 nnzs=144, refcount: 7>
  <dData1D:(new from dSpData1D) n=144, refcount: 1>
refcount: 1>
new_DM -- step:     6
Re-using DM from previous geometries...
Number of DMs in history: 1
 DM extrapolation coefficients: 
1   1.00000
New DM after history re-use:
<dSpData2D:SpM extrapolated using coords
  <sparsity:sparsity for geom step 6
    nrows_g=12 nrows=12 sparsity=1.0000 nnzs=144, refcount: 9>
  <dData2D:(temp array for extrapolation) n=144 m=1, refcount: 1>
refcount: 1>
Note: For starting DM, Qtot, Tr[D*S] =         16.00000000         15.95592885
No. of atoms with KB's overlaping orbs in proc 0. Max # of overlaps:       6       8

InitMesh: MESH = 64 x 64 x 50 = 204800
InitMesh: Mesh cutoff (required, used) =   100.000   107.960 Ry
New grid distribution [1]: sub = 2

        iscf     Eharris(eV)        E_KS(eV)     FreeEng(eV)     dDmax    Ef(eV) dHmax(eV)
   scf:    1     -924.468560     -924.244402     -924.244402  0.122153 -2.991730  1.517042
   scf:    2     -921.744067     -923.587521     -923.587521  0.221671 -2.299160  3.635185
   scf:    3     -924.671973     -924.408075     -924.408075  0.147308 -1.764220  0.101805
   scf:    4     -924.408872     -924.408546     -924.408546  0.002309 -1.747123  0.076248
   scf:    5     -924.409018     -924.408790     -924.408790  0.002041 -1.737853  0.041440
   scf:    6     -924.408965     -924.408887     -924.408887  0.002371 -1.727845  0.003453
   scf:    7     -924.408888     -924.408888     -924.408888  0.000114 -1.727466  0.001884
   scf:    8     -924.408888     -924.408888     -924.408888  0.000073 -1.727153  0.000616

SCF Convergence by DM+H criterion
max |DM_out - DM_in|         :     0.0000731656
max |H_out - H_in|      (eV) :     0.0006163767
SCF cycle converged after 8 iterations

Using DM_out to compute the final energy and forces
No. of atoms with KB's overlaping orbs in proc 0. Max # of overlaps:       6       8

siesta: E_KS(eV) =             -924.4089

siesta: Atomic forces (eV/Ang):
     1   -0.099340    3.817521    0.157183
     2   -2.456501   -2.019440    0.041805
     3    2.599125   -1.792402    0.259020
     4   -0.053553   -2.592175    0.785886
     5   -2.972977    1.410986    0.432248
     6    2.991183    1.132019   -0.663338
----------------------------------------
   Tot    0.007937   -0.043490    1.012804
----------------------------------------
   Max    3.817521
   Res    1.882410    sqrt( Sum f_i^2 / 3N )
----------------------------------------
   Max    3.817521    constrained

Stress tensor Voigt[x,y,z,yz,xz,xy] (kbar):       20.13        8.36       -0.26       -0.99       -1.12        0.23
(Free)E + p*V (eV/cell)     -929.1075
Target enthalpy (eV/cell)     -924.4089

siesta: Stress tensor (static) (eV/Ang**3):
         0.013418   -0.000161   -0.001094
        -0.000161    0.006403   -0.000447
        -0.001094   -0.000447    0.000296

siesta: Pressure (static):        -10.74364809  kBar

siesta: Stress tensor (total) (eV/Ang**3):
         0.012564    0.000143   -0.000702
         0.000142    0.005218   -0.000617
        -0.000702   -0.000617   -0.000163

siesta: Pressure (total):         -9.41009272  kBar

siesta: Temp_ion =     754.229 K

                     ====================================
                        Begin MD step =      7
                     ====================================

outcoor: Atomic coordinates (Ang):                          
    0.02815886   -0.07151580   -0.01117114   1       1  O
    0.93647002    0.82853376   -0.00302214   2       2  H
   -0.96364358    0.73359808   -0.09120227   2       3  H
   -0.02114551    0.06209815    3.02227735   1       4  O
    0.95181609   -0.75633917    2.81913589   2       5  H
   -1.03543379   -0.65475948    3.27392792   2       6  H

outcell: Unit cell vectors (Ang):
       10.000000    0.000000    0.000000
        0.000000   10.000000    0.000000
        0.000000    0.000000    8.000000

outcell: Cell vector modules (Ang)   :   10.000000   10.000000    8.000000
outcell: Cell angles (23,13,12) (deg):     90.0000     90.0000     90.0000
outcell: Cell volume (Ang**3)        :    800.0000
Gamma-point calculation with multiply-connected orbital pairs
Folding of H and S implicitly performed
<dSpData1D:S at geom step 7
  <sparsity:sparsity for geom step 7
    nrows_g=12 nrows=12 sparsity=1.0000 nnzs=144, refcount: 7>
  <dData1D:(new from dSpData1D) n=144, refcount: 1>
refcount: 1>
new_DM -- step:     7
Re-using DM from previous geometries...
Number of DMs in history: 1
 DM extrapolation coefficients: 
1   1.00000
New DM after history re-use:
<dSpData2D:SpM extrapolated using coords
  <sparsity:sparsity for geom step 7
    nrows_g=12 nrows=12 sparsity=1.0000 nnzs=144, refcount: 9>
  <dData2D:(temp array for extrapolation) n=144 m=1, refcount: 1>
refcount: 1>
Note: For starting DM, Qtot, Tr[D*S] =         16.00000000         15.98255887
No. of atoms with KB's overlaping orbs in proc 0. Max # of overlaps:       6       8

InitMesh: MESH = 64 x 64 x 50 = 204800
InitMesh: Mesh cutoff (required, used) =   100.000   107.960 Ry
New grid distribution [1]: sub = 2

        iscf     Eharris(eV)        E_KS(eV)     FreeEng(eV)     dDmax    Ef(eV) dHmax(eV)
   scf:    1     -924.343739     -924.196803     -924.196803  0.052985 -1.867117  0.614191
   scf:    2     -923.772455     -924.083186     -924.083186  0.096462 -2.171334  1.556803
   scf:    3     -924.263173     -924.221901     -924.221901  0.066618 -1.951819  0.044975
   scf:    4     -924.222100     -924.222005     -924.222005  0.000926 -1.946552  0.032042
   scf:    5     -924.222159     -924.222088     -924.222088  0.001686 -1.939743  0.008774
   scf:    6     -924.222099     -924.222094     -924.222094  0.000491 -1.937715  0.002548
   scf:    7     -924.222095     -924.222095     -924.222095  0.000095 -1.937328  0.001282
   scf:    8     -924.222095     -924.222095     -924.222095  0.000064 -1.937057  0.000370

SCF Convergence by DM+H criterion
max |DM_out - DM_in|         :     0.0000635501
max |H_out - H_in|      (eV) :     0.0003701227
SCF cycle converged after 8 iterations

Using DM_out to compute the final energy and forces
No. of atoms with KB's overlaping orbs in proc 0. Max # of overlaps:       6       8

siesta: E_KS(eV) =             -924.2221

siesta: Atomic forces (eV/Ang):
     1   -0.161957    4.115686    0.186685
     2   -2.456955   -2.192721    0.035129
     3    2.666709   -1.952920    0.289221
     4    0.092616   -2.923598    0.623776
     5   -3.107354    1.683196    0.544418
     6    2.978046    1.219591   -0.752511
----------------------------------------
   Tot    0.011106   -0.050767    0.926719
----------------------------------------
   Max    4.115686
   Res    1.993147    sqrt( Sum f_i^2 / 3N )
----------------------------------------
   Max    4.115686    constrained

Stress tensor Voigt[x,y,z,yz,xz,xy] (kbar):       21.58       10.64        0.02       -1.00       -1.81       -0.33
(Free)E + p*V (eV/cell)     -929.5867
Target enthalpy (eV/cell)     -924.2221

siesta: Stress tensor (static) (eV/Ang**3):
         0.013654   -0.000427   -0.001293
        -0.000427    0.007299   -0.000427
        -0.001293   -0.000427    0.000383

siesta: Pressure (static):        -11.39457355  kBar

siesta: Stress tensor (total) (eV/Ang**3):
         0.013467   -0.000204   -0.001130
        -0.000204    0.006640   -0.000621
        -0.001130   -0.000621    0.000010

siesta: Pressure (total):        -10.74374517  kBar

siesta: Temp_ion =     472.694 K

                     ====================================
                        Begin MD step =      8
                     ====================================

outcoor: Atomic coordinates (Ang):                          
    0.03283740   -0.07819764   -0.01271670   1       1  O
    0.91117872    0.82406278   -0.00163670   2       2  H
   -0.94141121    0.72035266   -0.09921839   2       3  H
   -0.02534946    0.06955988    3.02773954   1       4  O
    0.92098245   -0.76259088    2.79829570   2       5  H
   -1.00874455   -0.64368610    3.30227564   2       6  H

outcell: Unit cell vectors (Ang):
       10.000000    0.000000    0.000000
        0.000000   10.000000    0.000000
        0.000000    0.000000    8.000000

outcell: Cell vector modules (Ang)   :   10.000000   10.000000    8.000000
outcell: Cell angles (23,13,12) (deg):     90.0000     90.0000     90.0000
outcell: Cell volume (Ang**3)        :    800.0000
Gamma-point calculation with multiply-connected orbital pairs
Folding of H and S implicitly performed
<dSpData1D:S at geom step 8
  <sparsity:sparsity for geom step 8
    nrows_g=12 nrows=12 sparsity=1.0000 nnzs=144, refcount: 7>
  <dData1D:(new from dSpData1D) n=144, refcount: 1>
refcount: 1>
new_DM -- step:     8
Re-using DM from previous geometries...
Number of DMs in history: 1
 DM extrapolation coefficients: 
1   1.00000
New DM after history re-use:
<dSpData2D:SpM extrapolated using coords
  <sparsity:sparsity for geom step 8
    nrows_g=12 nrows=12 sparsity=1.0000 nnzs=144, refcount: 9>
  <dData2D:(temp array for extrapolation) n=144 m=1, refcount: 1>
refcount: 1>
No. of atoms with KB's overlaping orbs in proc 0. Max # of overlaps:       6      10

InitMesh: MESH = 64 x 64 x 50 = 204800
InitMesh: Mesh cutoff (required, used) =   100.000   107.960 Ry
New grid distribution [1]: sub = 2

        iscf     Eharris(eV)        E_KS(eV)     FreeEng(eV)     dDmax    Ef(eV) dHmax(eV)
   scf:    1     -924.242036     -924.451012     -924.451012  0.035086 -1.862935  0.388825
   scf:    2     -924.301132     -924.411315     -924.411315  0.057592 -1.700120  0.995500
   scf:    3     -924.474612     -924.460512     -924.460512  0.040767 -1.817993  0.035446
   scf:    4     -924.460663     -924.460590     -924.460590  0.000831 -1.819608  0.024264
   scf:    5     -924.460697     -924.460651     -924.460651  0.001759 -1.823526  0.003880
   scf:    6     -924.460653     -924.460652     -924.460652  0.000142 -1.823866  0.002280
   scf:    7     -924.460653     -924.460653     -924.460653  0.000121 -1.824077  0.000592
   scf:    8     -924.460653     -924.460653     -924.460653  0.000031 -1.824085  0.000327

SCF Convergence by DM+H criterion
max |DM_out - DM_in|         :     0.0000313304
max |H_out - H_in|      (eV) :     0.0003274285
SCF cycle converged after 8 iterations

Using DM_out to compute the final energy and forces
No. of atoms with KB's overlaping orbs in proc 0. Max # of overlaps:       6      10

siesta: E_KS(eV) =             -924.4607

siesta: Atomic forces (eV/Ang):
     1   -0.203695    4.001155    0.226186
     2   -2.181639   -2.141375    0.037256
     3    2.436872   -1.918162    0.299110
     4    0.260481   -2.924359    0.415587
     5   -2.972924    1.782450    0.600756
     6    2.677372    1.150709   -0.767958
----------------------------------------
   Tot    0.016466   -0.049581    0.810938
----------------------------------------
   Max    4.001155
   Res    1.906224    sqrt( Sum f_i^2 / 3N )
----------------------------------------
   Max    4.001155    constrained

Stress tensor Voigt[x,y,z,yz,xz,xy] (kbar):       19.22       11.15        0.29       -0.90       -2.16       -0.87
(Free)E + p*V (eV/cell)     -929.5646
Target enthalpy (eV/cell)     -924.4607

siesta: Stress tensor (static) (eV/Ang**3):
         0.012170   -0.000673   -0.001325
        -0.000673    0.007272   -0.000374
        -0.001325   -0.000374    0.000462

siesta: Pressure (static):        -10.62969054  kBar

siesta: Stress tensor (total) (eV/Ang**3):
         0.011998   -0.000545   -0.001350
        -0.000545    0.006960   -0.000563
        -0.001350   -0.000563    0.000182

siesta: Pressure (total):        -10.22180017  kBar

siesta: Temp_ion =     832.105 K

                     ====================================
                        Begin MD step =      9
                     ====================================

outcoor: Atomic coordinates (Ang):                          
    0.03739309   -0.08246650   -0.01412585   1       1  O
    0.86500486    0.79909465    0.00010534   2       2  H
   -0.89585320    0.68874668   -0.10437143   2       3  H
   -0.02939632    0.07525800    3.03345236   1       4  O
    0.86169210   -0.75178105    2.78320593   2       5  H
   -0.95642762   -0.62159819    3.32327249   2       6  H

outcell: Unit cell vectors (Ang):
       10.000000    0.000000    0.000000
        0.000000   10.000000    0.000000
        0.000000    0.000000    8.000000

outcell: Cell vector modules (Ang)   :   10.000000   10.000000    8.000000
outcell: Cell angles (23,13,12) (deg):     90.0000     90.0000     90.0000
outcell: Cell volume (Ang**3)        :    800.0000
Gamma-point calculation with multiply-connected orbital pairs
Folding of H and S implicitly performed
<dSpData1D:S at geom step 9
  <sparsity:sparsity for geom step 9
    nrows_g=12 nrows=12 sparsity=1.0000 nnzs=144, refcount: 7>
  <dData1D:(new from dSpData1D) n=144, refcount: 1>
refcount: 1>
new_DM -- step:     9
Re-using DM from previous geometries...
Number of DMs in history: 1
 DM extrapolation coefficients: 
1   1.00000
New DM after history re-use:
<dSpData2D:SpM extrapolated using coords
  <sparsity:sparsity for geom step 9
    nrows_g=12 nrows=12 sparsity=1.0000 nnzs=144, refcount: 9>
  <dData2D:(temp array for extrapolation) n=144 m=1, refcount: 1>
refcount: 1>
Note: For starting DM, Qtot, Tr[D*S] =         16.00000000         16.03705494
No. of atoms with KB's overlaping orbs in proc 0. Max # of overlaps:       6      10

InitMesh: MESH = 64 x 64 x 50 = 204800
InitMesh: Mesh cutoff (required, used) =   100.000   107.960 Ry
New grid distribution [1]: sub = 2

        iscf     Eharris(eV)        E_KS(eV)     FreeEng(eV)     dDmax    Ef(eV) dHmax(eV)
   scf:    1     -924.118582     -924.935680     -924.935680  0.078610 -1.525722  1.133308
   scf:    2     -923.814169     -924.647778     -924.647778  0.153794 -0.988721  2.567953
   scf:    3     -925.130242     -925.018827     -925.018827  0.106358 -1.369807  0.103737
   scf:    4     -925.019513     -925.019187     -925.019187  0.002131 -1.374570  0.070140
   scf:    5     -925.019678     -925.019455     -925.019455  0.003483 -1.388037  0.013093
   scf:    6     -925.019476     -925.019467     -925.019467  0.000783 -1.393150  0.003311
   scf:    7     -925.019468     -925.019468     -925.019468  0.000134 -1.393817  0.001845
   scf:    8     -925.019468     -925.019468     -925.019468  0.000069 -1.393939  0.001278
   scf:    9     -925.019468     -925.019468     -925.019468  0.000055 -1.393978  0.000580

SCF Convergence by DM+H criterion
max |DM_out - DM_in|         :     0.0000548136
max |H_out - H_in|      (eV) :     0.0005795547
SCF cycle converged after 9 iterations

Using DM_out to compute the final energy and forces
No. of atoms with KB's overlaping orbs in proc 0. Max # of overlaps:       6      10

siesta: E_KS(eV) =             -925.0195

siesta: Atomic forces (eV/Ang):
     1   -0.217032    3.335429    0.283822
     2   -1.531697   -1.781360    0.054981
     3    1.803595   -1.635139    0.273693
     4    0.522349   -2.505492    0.144789
     5   -2.525731    1.683048    0.566050
     6    1.974458    0.859200   -0.649774
----------------------------------------
   Tot    0.025941   -0.044315    0.673562
----------------------------------------
   Max    3.335429
   Res    1.562392    sqrt( Sum f_i^2 / 3N )
----------------------------------------
   Max    3.335429    constrained

Stress tensor Voigt[x,y,z,yz,xz,xy] (kbar):       12.69        9.32        0.48       -0.69       -2.00       -1.39
(Free)E + p*V (eV/cell)     -928.7630
Target enthalpy (eV/cell)     -925.0195

siesta: Stress tensor (static) (eV/Ang**3):
         0.008786   -0.000937   -0.001114
        -0.000937    0.006101   -0.000273
        -0.001114   -0.000273    0.000495

siesta: Pressure (static):         -8.21535925  kBar

siesta: Stress tensor (total) (eV/Ang**3):
         0.007921   -0.000870   -0.001249
        -0.000870    0.005819   -0.000431
        -0.001249   -0.000431    0.000299

siesta: Pressure (total):         -7.49733075  kBar

siesta: Temp_ion =    1664.222 K

                     ====================================
                        Begin MD step =     10
                     ====================================

outcoor: Atomic coordinates (Ang):                          
    0.04181789   -0.08472386   -0.01536384   1       1  O
    0.80416966    0.75707541    0.00237367   2       2  H
   -0.83303126    0.64148921   -0.10690470   2       3  H
   -0.03312816    0.07944514    3.03925250   1       4  O
    0.77822556   -0.72486116    2.77353436   2       5  H
   -0.88521127   -0.59128606    3.33804973   2       6  H

outcell: Unit cell vectors (Ang):
       10.000000    0.000000    0.000000
        0.000000   10.000000    0.000000
        0.000000    0.000000    8.000000

outcell: Cell vector modules (Ang)   :   10.000000   10.000000    8.000000
outcell: Cell angles (23,13,12) (deg):     90.0000     90.0000     90.0000
outcell: Cell volume (Ang**3)        :    800.0000
Gamma-point calculation with multiply-connected orbital pairs
Folding of H and S implicitly performed
<dSpData1D:S at geom step 10
  <sparsity:sparsity for geom step 10
    nrows_g=12 nrows=12 sparsity=1.0000 nnzs=144, refcount: 7>
  <dData1D:(new from dSpData1D) n=144, refcount: 1>
refcount: 1>
new_DM -- step:    10
Re-using DM from previous geometries...
Number of DMs in history: 1
 DM extrapolation coefficients: 
1   1.00000
New DM after history re-use:
<dSpData2D:SpM extrapolated using coords
  <sparsity:sparsity for geom step 10
    nrows_g=12 nrows=12 sparsity=1.0000 nnzs=144, refcount: 9>
  <dData2D:(temp array for extrapolation) n=144 m=1, refcount: 1>
refcount: 1>
Note: For starting DM, Qtot, Tr[D*S] =         16.00000000         16.04604595
No. of atoms with KB's overlaping orbs in proc 0. Max # of overlaps:       6      10

InitMesh: MESH = 64 x 64 x 50 = 204800
InitMesh: Mesh cutoff (required, used) =   100.000   107.960 Ry
New grid distribution [1]: sub = 2

        iscf     Eharris(eV)        E_KS(eV)     FreeEng(eV)     dDmax    Ef(eV) dHmax(eV)
   scf:    1     -923.948982     -925.411515     -925.411515  0.122031 -4.104898  1.559433
   scf:    2     -923.973685     -925.074233     -925.074233  0.185743 -3.312008  2.980839
   scf:    3     -925.727120     -925.564803     -925.564803  0.122629 -3.848147  0.148820
   scf:    4     -925.566059     -925.565463     -925.565463  0.003212 -3.856246  0.101382
   scf:    5     -925.566335     -925.565940     -925.565940  0.005284 -3.878957  0.023769
   scf:    6     -925.565997     -925.565971     -925.565971  0.001337 -3.889129  0.007685
   scf:    7     -925.565974     -925.565973     -925.565973  0.000191 -3.891447  0.003793
   scf:    8     -925.565974     -925.565974     -925.565974  0.000087 -3.891603  0.002632
   scf:    9     -925.565974     -925.565974     -925.565974  0.000103 -3.891568  0.001169
   scf:   10     -925.565974     -925.565974     -925.565974  0.000063 -3.891454  0.000266

SCF Convergence by DM+H criterion
max |DM_out - DM_in|         :     0.0000627303
max |H_out - H_in|      (eV) :     0.0002659045
SCF cycle converged after 10 iterations

Using DM_out to compute the final energy and forces
No. of atoms with KB's overlaping orbs in proc 0. Max # of overlaps:       6      10

siesta: E_KS(eV) =             -925.5660

siesta: Atomic forces (eV/Ang):
     1   -0.162585    1.734739    0.380146
     2   -0.267746   -0.894941    0.103562
     3    0.486424   -0.940588    0.176578
     4    0.902881   -1.360215   -0.195318
     5   -1.545501    1.218104    0.332856
     6    0.624795    0.205072   -0.267976
----------------------------------------
   Tot    0.038269   -0.037829    0.529850
----------------------------------------
   Max    1.734739
   Res    0.830227    sqrt( Sum f_i^2 / 3N )
----------------------------------------
   Max    1.734739    constrained

Stress tensor Voigt[x,y,z,yz,xz,xy] (kbar):        1.64        4.37        0.40       -0.37       -1.09       -1.77
(Free)E + p*V (eV/cell)     -926.6321
Target enthalpy (eV/cell)     -925.5660

siesta: Stress tensor (static) (eV/Ang**3):
         0.003015   -0.001184   -0.000523
        -0.001184    0.003283   -0.000121
        -0.000523   -0.000121    0.000389

siesta: Pressure (static):         -3.57118143  kBar

siesta: Stress tensor (total) (eV/Ang**3):
         0.001021   -0.001104   -0.000683
        -0.001104    0.002725   -0.000231
        -0.000683   -0.000231    0.000252

siesta: Pressure (total):         -2.13511493  kBar

siesta: Temp_ion =    2449.713 K

siesta: Program's energy decomposition (eV):
siesta: Ebs     =      -186.756267
siesta: Eions   =      1621.026762
siesta: Ena     =       347.721811
siesta: Ekin    =       682.930867
siesta: Enl     =      -112.522040
siesta: Eso     =         0.000000
siesta: Edftu   =         0.000000
siesta: DEna    =        -6.781082
siesta: DUscf   =         3.150059
siesta: DUext   =         0.000000
siesta: Ex      =      -194.276339
siesta: Ec      =       -24.762487
siesta: Exc     =      -219.038826
siesta: EbV     =         0.000000
siesta: eta*DQ  =         0.000000
siesta: Emadel  =         0.000000
siesta: Emeta   =         0.000000
siesta: Emolmec =         0.000000
siesta: Ekinion =         1.583250
siesta: Eharris =      -923.982725
siesta: Etot    =      -923.982724
siesta: FreeEng =      -923.982724

siesta: Final energy (eV):
siesta:  Band Struct. =    -186.756267
siesta:       Kinetic =     682.930867
siesta:       Hartree =     916.917103
siesta:         Edftu =       0.000000
siesta:       Eso     =       0.000000
siesta:    Ext. field =       0.000000
siesta:         Exch. =    -194.276339
siesta:         Corr. =     -24.762487
siesta:     Bulk bias =       0.000000
siesta:   Exch.-corr. =    -219.038826
siesta:  Ion-electron =   -2416.564798
siesta:       Ion-ion =     110.189680
siesta:       Ekinion =       1.583250
siesta: D3 dispersion =       0.000000
siesta:         Total =    -923.982724
siesta:         Fermi =      -3.891454

siesta: Atomic forces (eV/Ang):
siesta:      1   -0.162585    1.734739    0.380146
siesta:      2   -0.267746   -0.894941    0.103562
siesta:      3    0.486424   -0.940588    0.176578
siesta:      4    0.902881   -1.360215   -0.195318
siesta:      5   -1.545501    1.218104    0.332856
siesta:      6    0.624795    0.205072   -0.267976
siesta: ----------------------------------------
siesta:    Tot    0.038269   -0.037829    0.529850

siesta: Stress tensor (static) (eV/Ang**3):
siesta:     0.003015   -0.001184   -0.000523
siesta:    -0.001184    0.003283   -0.000121
siesta:    -0.000523   -0.000121    0.000389

siesta: Cell volume =        800.000000 Ang**3

siesta: Pressure (static):
siesta:                Solid            Molecule  Units
siesta:          -0.00002428          0.00000449  Ry/Bohr**3
siesta:          -0.00222896          0.00041223  eV/Ang**3
siesta:          -3.57118143          0.66046468  kBar
(Free)E+ p_basis*V_orbitals  =        -924.915960
(Free)Eharris+ p_basis*V_orbitals  =        -924.915960

siesta: Electric dipole (a.u.)  =   -0.094219    0.040153    0.000000
siesta: Electric dipole (Debye) =   -0.239482    0.102058    0.000000

cite: Please see "verlet.bib" for an exhaustive BiBTeX file.
cite: Please clearly indicate Siesta version in published work: 5.0.0-alpha-123-gfb8fd7d02
cite: This calculation has made use of the following articles
cite: which are encouraged to be cited in a published work.
        Primary SIESTA paper
          DOI: www.doi.org/10.1088/0953-8984/14/11/302


timer: Elapsed wall time (sec) =       2.130
timer: CPU execution times (sec):

Routine            Calls   Time/call    Tot.time        %
siesta                 1       2.130       2.130   100.00
Setup                  1       0.055       0.055     2.61
bands                  1       0.000       0.000     0.00
KSV_init               1       0.000       0.000     0.00
IterGeom              10       0.207       2.074    97.38
geom_init             10       0.037       0.369    17.34
state_init            10       0.000       0.005     0.22
hsparse               10       0.000       0.000     0.02
overlap               10       0.000       0.002     0.11
Setup_H0              10       0.021       0.207     9.71
naefs                 20       0.000       0.001     0.03
MolMec                20       0.000       0.000     0.00
kinefsm               20       0.000       0.002     0.11
nlefsm                20       0.001       0.014     0.67
DHSCF_Init            10       0.019       0.191     8.97
DHSCF1                10       0.003       0.025     1.19
INITMESH              10       0.000       0.000     0.00
DHSCF2                10       0.017       0.166     7.78
REMESH                10       0.001       0.006     0.27
REORD                298       0.000       0.041     1.94
PHION                 10       0.005       0.052     2.42
COMM_BSC             466       0.000       0.053     2.50
POISON               119       0.007       0.780    36.61
fft                  238       0.002       0.584    27.42
setup_H               99       0.015       1.521    71.41
DHSCF                109       0.017       1.831    86.00
DHSCF3               109       0.015       1.666    78.23
rhoofd               109       0.001       0.067     3.13
XC                   109       0.005       0.597    28.04
GXC-CellXC           109       0.005       0.535    25.11
gridxc@cellXC        109       0.005       0.534    25.08
vmat                 109       0.001       0.058     2.74
IterSCF               89       0.015       1.374    64.51
compute_dm            89       0.000       0.005     0.21
diagon                89       0.000       0.004     0.20
r-eigvec              89       0.000       0.003     0.16
r-buildHS             89       0.000       0.000     0.00
rdiag                 89       0.000       0.003     0.15
rdiag1                89       0.000       0.000     0.02
rdiag2                89       0.000       0.000     0.02
rdiag3                89       0.000       0.002     0.08
rdiag4                89       0.000       0.000     0.02
r-buildD              89       0.000       0.000     0.02
MIXER                 79       0.000       0.001     0.03
PostSCF               10       0.033       0.327    15.34
DHSCF4                10       0.017       0.166     7.77
dfscf                 10       0.012       0.116     5.44
overfsm               10       0.000       0.000     0.02
state_analysis        10       0.000       0.001     0.06
siesta_move           10       0.000       0.002     0.08
Analysis               1       0.000       0.000     0.01
optical                1       0.000       0.000     0.00
  

>> End of run:  28-SEP-2023  15:37:27
Job completed
