Siesta Version  : 5.0.0-alpha-123-gfb8fd7d02
Architecture    : ----
Compiler version: GNU-11.4.0
Compiler flags  : -fallow-argument-mismatch;-O3 -march=native
PP flags        : ----
Libraries       : ----
Parallelisations: none
GEMM3M support
NetCDF support
NetCDF-4 support
Lua support

Runtime information:
* Directory : /home/fnpedron/Siesta/siesta-dev/Tests/09.MolecularDynamics/work/verlet_restart
* Running in serial mode.
>> Start of run:  28-SEP-2023  15:37:39

                           *********************** 
                           *  WELCOME TO SIESTA  * 
                           *********************** 

reinit: Reading from standard input
reinit: Dumping input in INPUT_TMP.53121
************************** Dump of input data file ****************************
%include ../../basejob.fdf
SystemLabel           verlet
MD.TypeOfRun          verlet
MD.InitialTemperature 600 K
************************** End of input data file *****************************

reinit: -----------------------------------------------------------------------
reinit: System Name: Water molecules MD
reinit: -----------------------------------------------------------------------
reinit: System Label: verlet
reinit: -----------------------------------------------------------------------

initatom: Reading input for the pseudopotentials and atomic orbitals ----------
Species number:   1 Atomic number:    8 Label: O
Species number:   2 Atomic number:    1 Label: H


---- Processing specs for species: O
Ground state valence configuration:   2s02  2p04
Reading pseudopotential information in formatted form from:
  /home/fnpedron/Siesta/siesta-dev/Tests/Pseudos/O.psf

---- Processing specs for species: H
Ground state valence configuration:   1s01
Reading pseudopotential information in formatted form from:
  /home/fnpedron/Siesta/siesta-dev/Tests/Pseudos/H.psf

---- Pseudopotential check for O 

Pseudized shells:
2s( 2.00) rc: 1.14
2p( 4.00) rc: 1.14
3d( 0.00) rc: 1.14
4f( 0.00) rc: 1.14
Valence configuration for ps generation: (assumed as above)

---- Pseudopotential check for H 

Pseudized shells:
1s( 1.00) rc: 1.25
2p( 0.00) rc: 1.25
3d( 0.00) rc: 1.25
4f( 0.00) rc: 1.25
Valence configuration for ps generation: (assumed as above)
For O, standard SIESTA heuristics set lmxkb to 2
 (one more than the basis l, including polarization orbitals).
Use PS.lmax or PS.KBprojectors blocks to override.
For H, standard SIESTA heuristics set lmxkb to 1
 (one more than the basis l, including polarization orbitals).
Use PS.lmax or PS.KBprojectors blocks to override.

<basis_specs>
===============================================================================
O                    Z=   8    Mass=  15.999        Charge= 0.17977+309
Lmxo=1 Lmxkb= 2    BasisType=split      Semic=F
L=0  Nsemic=0  Cnfigmx=2
          i=1  nzeta=1  polorb=0  (2s)
            splnorm:   0.15000    
               vcte:    40.000    
               rinn:  -0.90000    
               qcoe:    0.0000    
               qyuk:    0.0000    
               qwid:   0.10000E-01
                rcs:    0.0000    
            lambdas:    1.0000    
L=1  Nsemic=0  Cnfigmx=2
          i=1  nzeta=1  polorb=0  (2p)
            splnorm:   0.15000    
               vcte:    40.000    
               rinn:  -0.90000    
               qcoe:    0.0000    
               qyuk:    0.0000    
               qwid:   0.10000E-01
                rcs:    0.0000    
            lambdas:    1.0000    
-------------------------------------------------------------------------------
L=0  Nkbl=1  erefs: 0.17977+309
L=1  Nkbl=1  erefs: 0.17977+309
L=2  Nkbl=1  erefs: 0.17977+309
===============================================================================
</basis_specs>

Using PAO.SplitTailNorm
atom: Called for O                     (Z =   8)
Maximum radius (at nrval) set to   50.00000 8518

read_vps: Pseudopotential generation method:
read_vps: ATM3      Troullier-Martins                       
Valence charge in pseudo generation:    6.00000

xc_check: Exchange-correlation functional:
xc_check: Ceperley-Alder
V l=0 = -2*Zval/r beyond r=  1.1366
V l=1 = -2*Zval/r beyond r=  1.1332
V l=2 = -2*Zval/r beyond r=  1.1298
All V_l potentials equal beyond r=  1.1355
This should be close to max(r_c) in ps generation
All pots = -2*Zval/r beyond r=  1.1366
Using small-core scheme (local charge) for Vlocal

VLOCAL_FROM_CHLOCAL: 99.0% of the norm of Vloc inside     33.667 Ry
VLOCAL_FROM_CHLOCAL: 99.9% of the norm of Vloc inside     76.727 Ry
atom: Maximum radius for chlocal:    1.37241
atom: Maximum radius for r*vlocal+2*Zval:    1.25469

KBgen: Kleinman-Bylander projectors: 
GHOST: No ghost state for L =  0
   l= 0   rc=  1.293209   el= -1.742414   Ekb=  9.076872   kbcos=  0.325320
GHOST: No ghost state for L =  1
   l= 1   rc=  1.284119   el= -0.676589   Ekb= -8.194485   kbcos= -0.396010
GHOST: No ghost state for L =  2
   l= 2   rc=  1.433152   el=  0.013307   Ekb= -2.071665   kbcos= -0.003690

KBgen: Total number of Kleinman-Bylander projectors:   9
atom: -------------------------------------------------------------------------

atom: SANKEY-TYPE ORBITALS:

SPLIT: Orbitals with angular momentum L= 0

SPLIT: Basis orbitals for state 2s

SPLIT: PAO cut-off radius determined from an
SPLIT: energy shift=  0.010000 Ry
Split based on tail norm

   izeta = 1
                 lambda =    1.000000
                     rc =    3.560943
                 energy =   -1.731321
                kinetic =    1.587329
    potential(screened) =   -3.318651
       potential(ionic) =  -11.260325

SPLIT: Orbitals with angular momentum L= 1

SPLIT: Basis orbitals for state 2p

SPLIT: PAO cut-off radius determined from an
SPLIT: energy shift=  0.010000 Ry
Split based on tail norm

   izeta = 1
                 lambda =    1.000000
                     rc =    4.290924
                 energy =   -0.665565
                kinetic =    4.934810
    potential(screened) =   -5.600376
       potential(ionic) =  -13.346429
atom: Total number of Sankey-type orbitals:  4

atm_pop: Valence configuration (for local Pseudopot. screening):
 2s( 2.00)                                                            
 2p( 4.00)                                                            
Vna: chval, zval:    6.00000   6.00000

Vna:  Cut-off radius for the neutral-atom potential:   4.290924

atom: _________________________________________________________________________

<basis_specs>
===============================================================================
H                    Z=   1    Mass=  1.0080        Charge= 0.17977+309
Lmxo=0 Lmxkb= 1    BasisType=split      Semic=F
L=0  Nsemic=0  Cnfigmx=1
          i=1  nzeta=1  polorb=0  (1s)
            splnorm:   0.15000    
               vcte:    40.000    
               rinn:  -0.90000    
               qcoe:    0.0000    
               qyuk:    0.0000    
               qwid:   0.10000E-01
                rcs:    0.0000    
            lambdas:    1.0000    
-------------------------------------------------------------------------------
L=0  Nkbl=1  erefs: 0.17977+309
L=1  Nkbl=1  erefs: 0.17977+309
===============================================================================
</basis_specs>

Using PAO.SplitTailNorm
atom: Called for H                     (Z =   1)
Maximum radius (at nrval) set to   50.00000 8518

read_vps: Pseudopotential generation method:
read_vps: ATM3      Troullier-Martins                       
Valence charge in pseudo generation:    1.00000

xc_check: Exchange-correlation functional:
xc_check: Ceperley-Alder
V l=0 = -2*Zval/r beyond r=  1.2384
V l=1 = -2*Zval/r beyond r=  1.2321
All V_l potentials equal beyond r=  1.2371
This should be close to max(r_c) in ps generation
All pots = -2*Zval/r beyond r=  1.2384
Using small-core scheme (local charge) for Vlocal

VLOCAL_FROM_CHLOCAL: 99.0% of the norm of Vloc inside     28.363 Ry
VLOCAL_FROM_CHLOCAL: 99.9% of the norm of Vloc inside     64.639 Ry
atom: Maximum radius for chlocal:    1.44620
atom: Maximum radius for r*vlocal+2*Zval:    1.31026

KBgen: Kleinman-Bylander projectors: 
GHOST: No ghost state for L =  0
   l= 0   rc=  1.364142   el= -0.467325   Ekb= -2.009475   kbcos= -0.336680
GHOST: No ghost state for L =  1
   l= 1   rc=  1.430269   el=  0.007562   Ekb= -0.503817   kbcos= -0.022554

KBgen: Total number of Kleinman-Bylander projectors:   4
atom: -------------------------------------------------------------------------

atom: SANKEY-TYPE ORBITALS:

SPLIT: Orbitals with angular momentum L= 0

SPLIT: Basis orbitals for state 1s

SPLIT: PAO cut-off radius determined from an
SPLIT: energy shift=  0.010000 Ry
Split based on tail norm

   izeta = 1
                 lambda =    1.000000
                     rc =    5.285354
                 energy =   -0.456120
                kinetic =    0.900445
    potential(screened) =   -1.356565
       potential(ionic) =   -1.890080
atom: Total number of Sankey-type orbitals:  1

atm_pop: Valence configuration (for local Pseudopot. screening):
 1s( 1.00)                                                            
Vna: chval, zval:    1.00000   1.00000

Vna:  Cut-off radius for the neutral-atom potential:   5.285354

atom: _________________________________________________________________________

prinput: Basis input 

PAO.BasisType split     

%block ChemicalSpeciesLabel
    1    8 O                       # Species index, atomic number, species label
    2    1 H                       # Species index, atomic number, species label
%endblock ChemicalSpeciesLabel

%block PAO.Basis                 # Define Basis set
# WARNING: This information might be incomplete!
O                     2                    # Species label, number of l-shells
 n=2   0   1                         # n, l, Nzeta 
   3.561   
   1.000   
 n=2   1   1                         # n, l, Nzeta 
   4.291   
   1.000   
H                     1                    # Species label, number of l-shells
 n=1   0   1                         # n, l, Nzeta 
   5.285   
   1.000   
%endblock PAO.Basis

prinput: ----------------------------------------------------------------------

Dumping basis to NetCDF file O.ion.nc
Dumping basis to NetCDF file H.ion.nc
coor:   Atomic-coordinates input format  =     Cartesian coordinates
coor:                                          (in Angstroms)

ioxv: Reading coordinates and velocities from file
! Info in XV file prevails over previous structure input

siesta: Atomic coordinates (Bohr) and species
siesta:      0.08716  -0.16032  -0.03009  1        1
siesta:      1.37481   1.32379   0.00660  2        2
siesta:     -1.42178   1.09439  -0.20767  2        3
siesta:     -0.06821   0.15512   5.75437  1        4
siesta:      1.24984  -1.28858   5.23638  2        5
siesta:     -1.49572  -1.05314   6.33382  2        6

siesta: System type = chain     

initatomlists: Number of atoms, orbitals, and projectors:      6    12    34

siesta: ******************** Simulation parameters ****************************
siesta:
siesta: The following are some of the parameters of the simulation.
siesta: A complete list of the parameters used, including default values,
siesta: can be found in file out.fdf
siesta:
redata: Spin configuration                          = none
redata: Number of spin components                   = 1
redata: Time-Reversal Symmetry                      = T
redata: Spin spiral                                 = F
redata: Long output                                 =   F
redata: Number of Atomic Species                    =        2
redata: Charge density info will appear in .RHO file
redata: Write Mulliken Pop.                         = NO
redata: Matel table size (NRTAB)                    =     1024
redata: Mesh Cutoff                                 =   100.0000 Ry
redata: Net charge of the system                    =     0.0000 |e|
redata: Min. number of SCF Iter                     =        0
redata: Max. number of SCF Iter                     =     1000
redata: SCF convergence failure will abort job
redata: SCF mix quantity                            = Hamiltonian
redata: Mix DM or H after convergence               =   F
redata: Recompute H after scf cycle                 =   F
redata: Mix DM in first SCF step                    =   T
redata: Write Pulay info on disk                    =   F
redata: New DM Occupancy tolerance                  = 0.000000000001
redata: No kicks to SCF
redata: DM Mixing Weight for Kicks                  =     0.5000
redata: Require Harris convergence for SCF          =   F
redata: Harris energy tolerance for SCF             =     0.000100 eV
redata: Require DM convergence for SCF              =   T
redata: DM tolerance for SCF                        =     0.000100
redata: Require EDM convergence for SCF             =   F
redata: EDM tolerance for SCF                       =     0.001000 eV
redata: Require H convergence for SCF               =   T
redata: Hamiltonian tolerance for SCF               =     0.001000 eV
redata: Require (free) Energy convergence for SCF   =   F
redata: (free) Energy tolerance for SCF             =     0.000100 eV
redata: Using DFT-D3 dispersion                     =   F
redata: Using Saved Data (generic)                  =   F
redata: Use continuation files for DM               =   F
redata: Neglect nonoverlap interactions             =   F
redata: Method of Calculation                       = Diagonalization
redata: Electronic Temperature                      =   299.9863 K
redata: Fix the spin of the system                  =   F
redata: Max. number of TDED Iter                    =        1
redata: Number of TDED substeps                     =        3
redata: Dynamics option                             = Verlet MD run
redata: Initial MD time step                        =        1
redata:   Final MD time step                        =       10
redata: Length of MD time step                      =     1.0000 fs
redata: Initial Temperature of MD run               =   600.0000 K
redata: Perform a MD quench                         =   F
mix.SCF: Pulay mixing                            = Pulay
mix.SCF:    Variant                              = stable
mix.SCF:    History steps                        = 2
mix.SCF:    Linear mixing weight                 =     0.250000
mix.SCF:    Mixing weight                        =     0.250000
mix.SCF:    SVD condition                        = 0.1000E-07
redata: Save all siesta data in one NC              =   F
redata: ***********************************************************************

%block SCF.Mixers
  Pulay
%endblock SCF.Mixers

%block SCF.Mixer.Pulay
  # Mixing method
  method pulay
  variant stable

  # Mixing options
  weight 0.2500
  weight.linear 0.2500
  history 2
%endblock SCF.Mixer.Pulay

Size of DM history Fstack: 1
Total number of electrons:    16.000000
Total ionic charge:    16.000000

siesta: k-grid: Number of k-points = 1
siesta: k-point is Gamma-only

diag: Algorithm                                     = D&C
diag: Used triangular part                          = Lower
diag: Absolute tolerance                            =  0.100E-15
diag: Orthogonalization factor                      =  0.100E-05
diag: Memory factor                                 =  1.0000


ts: **************************************************************
ts: Save H and S matrices                           =    F
ts: Save DM and EDM matrices                        =    F
ts: Only save the overlap matrix S                  =    F
ts: **************************************************************

************************ Begin: TS CHECKS AND WARNINGS ************************
************************ End: TS CHECKS AND WARNINGS **************************


                     ====================================
                        Begin MD step =      1
                     ====================================

outcoor: Atomic coordinates (Ang):                          
    0.04612341   -0.08483842   -0.01592075   1       1  O
    0.72751626    0.70052201    0.00349433   2       2  H
   -0.75237429    0.57912571   -0.10989547   2       3  H
   -0.03609372    0.08208829    3.04507887   1       4  O
    0.66138907   -0.68188533    2.77097116   2       5  H
   -0.79150180   -0.55729639    3.35171087   2       6  H

outcell: Unit cell vectors (Ang):
       10.000004    0.000000    0.000000
        0.000000   10.000004    0.000000
        0.000000    0.000000    8.000003

outcell: Cell vector modules (Ang)   :   10.000004   10.000004    8.000003
outcell: Cell angles (23,13,12) (deg):     90.0000     90.0000     90.0000
outcell: Cell volume (Ang**3)        :    800.0010
Gamma-point calculation with multiply-connected orbital pairs
Folding of H and S implicitly performed
<dSpData1D:S at geom step 1
  <sparsity:sparsity for geom step 1
    nrows_g=12 nrows=12 sparsity=1.0000 nnzs=144, refcount: 7>
  <dData1D:(new from dSpData1D) n=144, refcount: 1>
refcount: 1>
new_DM -- step:     1
Initializing Density Matrix...
DM filled with atomic data:
<dSpData2D:DM initialized from atoms
  <sparsity:sparsity for geom step 1
    nrows_g=12 nrows=12 sparsity=1.0000 nnzs=144, refcount: 8>
  <dData2D:DM n=144 m=1, refcount: 1>
refcount: 1>
No. of atoms with KB's overlaping orbs in proc 0. Max # of overlaps:       6      11

InitMesh: MESH = 64 x 64 x 50 = 204800
InitMesh: Mesh cutoff (required, used) =   100.000   107.960 Ry
New grid distribution [1]: sub = 2

stepf: Fermi-Dirac step function

siesta: Program's energy decomposition (eV):
siesta: Ebs     =      -143.053632
siesta: Eions   =      1621.026762
siesta: Ena     =       347.362956
siesta: Ekin    =       744.394748
siesta: Enl     =      -134.211724
siesta: Eso     =         0.000000
siesta: Edftu   =         0.000000
siesta: DEna    =       -37.052986
siesta: DUscf   =         7.740433
siesta: DUext   =         0.000000
siesta: Ex      =      -204.848267
siesta: Ec      =       -25.307281
siesta: Exc     =      -230.155548
siesta: EbV     =         0.000000
siesta: eta*DQ  =         0.000000
siesta: Emadel  =         0.000000
siesta: Emeta   =         0.000000
siesta: Emolmec =         0.000000
siesta: Ekinion =         0.000000
siesta: Eharris =      -917.151281
siesta: Etot    =      -922.948883
siesta: FreeEng =      -922.948883

        iscf     Eharris(eV)        E_KS(eV)     FreeEng(eV)     dDmax    Ef(eV) dHmax(eV)
   scf:    1     -917.151281     -922.948883     -922.948883  0.684479 -4.375554  7.290920
timer: Routine,Calls,Time,% = IterSCF        1       0.015  12.23
   scf:    2     -926.431848     -924.896681     -924.896681  0.150635 -3.557963  3.472440
   scf:    3     -925.628030     -925.428249     -925.428249  0.128457 -2.898505  0.725402
   scf:    4     -925.449790     -925.439483     -925.439483  0.009662 -2.969914  0.529984
   scf:    5     -925.455774     -925.448294     -925.448294  0.020090 -3.069325  0.162286
   scf:    6     -925.449696     -925.449035     -925.449035  0.006216 -3.079316  0.086712
   scf:    7     -925.449173     -925.449122     -925.449122  0.003041 -3.078430  0.027458
   scf:    8     -925.449135     -925.449129     -925.449129  0.000248 -3.075252  0.013874
   scf:    9     -925.449141     -925.449136     -925.449136  0.000338 -3.071236  0.009206
   scf:   10     -925.449141     -925.449138     -925.449138  0.000267 -3.069878  0.005512
   scf:   11     -925.449140     -925.449139     -925.449139  0.000269 -3.068794  0.003044
   scf:   12     -925.449139     -925.449139     -925.449139  0.000053 -3.068720  0.002354
   scf:   13     -925.449139     -925.449139     -925.449139  0.000049 -3.068724  0.001231
   scf:   14     -925.449139     -925.449139     -925.449139  0.000006 -3.068800  0.000705

SCF Convergence by DM+H criterion
max |DM_out - DM_in|         :     0.0000062080
max |H_out - H_in|      (eV) :     0.0007052228
SCF cycle converged after 14 iterations

Using DM_out to compute the final energy and forces
No. of atoms with KB's overlaping orbs in proc 0. Max # of overlaps:       6      11

siesta: E_KS(eV) =             -925.4491

siesta: E_KS - E_eggbox =      -925.4491

siesta: Atomic forces (eV/Ang):
     1    0.111187   -1.891849    0.565364
     2    2.305808    1.132356    0.232210
     3   -2.363491    0.646760   -0.104449
     4    1.219644    1.534191   -0.538600
     5    0.802119   -0.293141   -0.524515
     6   -2.016838   -1.154578    0.751618
----------------------------------------
   Tot    0.058429   -0.026262    0.381628
----------------------------------------
   Max    2.363491
   Res    1.240088    sqrt( Sum f_i^2 / 3N )
----------------------------------------
   Max    2.363491    constrained

Stress tensor Voigt[x,y,z,yz,xz,xy] (kbar):      -15.59       -5.80       -0.43       -0.11        1.15       -1.49
(Free)E + p*V (eV/cell)     -921.8175
Target enthalpy (eV/cell)     -925.4491

siesta: Stress tensor (static) (eV/Ang**3):
        -0.006933   -0.001142    0.000865
        -0.001142   -0.002731    0.000003
         0.000865    0.000003   -0.000157

siesta: Pressure (static):          5.24506436  kBar

siesta: Stress tensor (total) (eV/Ang**3):
        -0.009733   -0.000932    0.000721
        -0.000932   -0.003619   -0.000069
         0.000721   -0.000069   -0.000266

siesta: Pressure (total):          7.27307699  kBar
 MD restart: Read old forces from VERLET_RESTART

siesta: Temp_ion =    2097.646 K

                     ====================================
                        Begin MD step =      2
                     ====================================

outcoor: Atomic coordinates (Ang):                          
    0.05054242   -0.08734783   -0.01651018   1       1  O
    0.68968597    0.66297087    0.00883472   2       2  H
   -0.71112598    0.53050444   -0.11242597   2       3  H
   -0.03843900    0.08654759    3.05042551   1       4  O
    0.57232477   -0.64735091    2.75921668   2       5  H
   -0.73687148   -0.53852804    3.37272801   2       6  H

outcell: Unit cell vectors (Ang):
       10.000004    0.000000    0.000000
        0.000000   10.000004    0.000000
        0.000000    0.000000    8.000003

outcell: Cell vector modules (Ang)   :   10.000004   10.000004    8.000003
outcell: Cell angles (23,13,12) (deg):     90.0000     90.0000     90.0000
outcell: Cell volume (Ang**3)        :    800.0010
Gamma-point calculation with multiply-connected orbital pairs
Folding of H and S implicitly performed
<dSpData1D:S at geom step 2
  <sparsity:sparsity for geom step 2
    nrows_g=12 nrows=12 sparsity=1.0000 nnzs=144, refcount: 7>
  <dData1D:(new from dSpData1D) n=144, refcount: 1>
refcount: 1>
new_DM -- step:     2
Re-using DM from previous geometries...
Number of DMs in history: 1
 DM extrapolation coefficients: 
1   1.00000
New DM after history re-use:
<dSpData2D:SpM extrapolated using coords
  <sparsity:sparsity for geom step 2
    nrows_g=12 nrows=12 sparsity=1.0000 nnzs=144, refcount: 9>
  <dData2D:(temp array for extrapolation) n=144 m=1, refcount: 1>
refcount: 1>
No. of atoms with KB's overlaping orbs in proc 0. Max # of overlaps:       6      11

InitMesh: MESH = 64 x 64 x 50 = 204800
InitMesh: Mesh cutoff (required, used) =   100.000   107.960 Ry
New grid distribution [1]: sub = 2

        iscf     Eharris(eV)        E_KS(eV)     FreeEng(eV)     dDmax    Ef(eV) dHmax(eV)
   scf:    1     -923.376160     -924.628918     -924.628918  0.105622 -2.632332  0.968336
   scf:    2     -924.413085     -924.600766     -924.600766  0.089364 -2.135901  1.298338
   scf:    3     -924.725546     -924.688484     -924.688484  0.050742 -2.431867  0.085915
   scf:    4     -924.688844     -924.688668     -924.688668  0.001707 -2.440998  0.061357
   scf:    5     -924.688975     -924.688840     -924.688840  0.004247 -2.465908  0.009337
   scf:    6     -924.688844     -924.688842     -924.688842  0.000157 -2.467739  0.004561
   scf:    7     -924.688844     -924.688843     -924.688843  0.000173 -2.469261  0.001083
   scf:    8     -924.688843     -924.688843     -924.688843  0.000038 -2.469274  0.000738

SCF Convergence by DM+H criterion
max |DM_out - DM_in|         :     0.0000375271
max |H_out - H_in|      (eV) :     0.0007377960
SCF cycle converged after 8 iterations

Using DM_out to compute the final energy and forces
No. of atoms with KB's overlaping orbs in proc 0. Max # of overlaps:       6      11

siesta: E_KS(eV) =             -924.6888

siesta: Atomic forces (eV/Ang):
     1    0.544688   -5.191967    0.765632
     2    4.315180    2.944959    0.367458
     3   -4.809937    2.104933   -0.408013
     4    0.690177    4.593704   -0.423870
     5    3.262765   -2.341959   -1.776930
     6   -3.923552   -2.120309    1.753921
----------------------------------------
   Tot    0.079320   -0.010639    0.278198
----------------------------------------
   Max    5.191967
   Res    2.857864    sqrt( Sum f_i^2 / 3N )
----------------------------------------
   Max    5.191967    constrained

Stress tensor Voigt[x,y,z,yz,xz,xy] (kbar):      -26.19      -14.31       -1.68       -0.46        3.24       -0.07
(Free)E + p*V (eV/cell)     -917.6692
Target enthalpy (eV/cell)     -924.6888

siesta: Stress tensor (static) (eV/Ang**3):
        -0.013950   -0.000398    0.002200
        -0.000397   -0.008055   -0.000238
         0.002200   -0.000238   -0.000929

siesta: Pressure (static):         12.24828407  kBar

siesta: Stress tensor (total) (eV/Ang**3):
        -0.016344   -0.000045    0.002020
        -0.000045   -0.008932   -0.000288
         0.002020   -0.000288   -0.001047

siesta: Pressure (total):         14.05835253  kBar

siesta: Temp_ion =    1046.969 K

                     ====================================
                        Begin MD step =      3
                     ====================================

outcoor: Atomic coordinates (Ang):                          
    0.05528992   -0.09298837   -0.01663789   1       1  O
    0.69316040    0.65360876    0.01769240   2       2  H
   -0.71591818    0.50203150   -0.11886195   2       3  H
   -0.04036805    0.09377722    3.05551652   1       4  O
    0.51449152   -0.63523362    2.73045350   2       5  H
   -0.71979724   -0.54005519    3.41053361   2       6  H

outcell: Unit cell vectors (Ang):
       10.000004    0.000000    0.000000
        0.000000   10.000004    0.000000
        0.000000    0.000000    8.000003

outcell: Cell vector modules (Ang)   :   10.000004   10.000004    8.000003
outcell: Cell angles (23,13,12) (deg):     90.0000     90.0000     90.0000
outcell: Cell volume (Ang**3)        :    800.0010
Gamma-point calculation with multiply-connected orbital pairs
Folding of H and S implicitly performed
<dSpData1D:S at geom step 3
  <sparsity:sparsity for geom step 3
    nrows_g=12 nrows=12 sparsity=1.0000 nnzs=144, refcount: 7>
  <dData1D:(new from dSpData1D) n=144, refcount: 1>
refcount: 1>
new_DM -- step:     3
Re-using DM from previous geometries...
Number of DMs in history: 1
 DM extrapolation coefficients: 
1   1.00000
New DM after history re-use:
<dSpData2D:SpM extrapolated using coords
  <sparsity:sparsity for geom step 3
    nrows_g=12 nrows=12 sparsity=1.0000 nnzs=144, refcount: 9>
  <dData2D:(temp array for extrapolation) n=144 m=1, refcount: 1>
refcount: 1>
No. of atoms with KB's overlaping orbs in proc 0. Max # of overlaps:       6      11

InitMesh: MESH = 64 x 64 x 50 = 204800
InitMesh: Mesh cutoff (required, used) =   100.000   107.960 Ry
New grid distribution [1]: sub = 2

        iscf     Eharris(eV)        E_KS(eV)     FreeEng(eV)     dDmax    Ef(eV) dHmax(eV)
   scf:    1     -924.353935     -924.526901     -924.526901  0.072363 -2.351579  0.282762
   scf:    2     -924.524609     -924.527565     -924.527565  0.021802 -2.283394  0.211334
   scf:    3     -924.530176     -924.529316     -924.529316  0.010355 -2.323353  0.034079
   scf:    4     -924.529392     -924.529355     -924.529355  0.000705 -2.325499  0.023338
   scf:    5     -924.529409     -924.529385     -924.529385  0.001540 -2.328804  0.006478
   scf:    6     -924.529386     -924.529386     -924.529386  0.000138 -2.328471  0.003376
   scf:    7     -924.529386     -924.529386     -924.529386  0.000156 -2.328033  0.000786
   scf:    8     -924.529386     -924.529386     -924.529386  0.000025 -2.327987  0.000444

SCF Convergence by DM+H criterion
max |DM_out - DM_in|         :     0.0000253407
max |H_out - H_in|      (eV) :     0.0004440438
SCF cycle converged after 8 iterations

Using DM_out to compute the final energy and forces
No. of atoms with KB's overlaping orbs in proc 0. Max # of overlaps:       6      11

siesta: E_KS(eV) =             -924.5294

siesta: Atomic forces (eV/Ang):
     1    0.764417   -5.573909    0.815514
     2    4.266200    3.109909    0.407515
     3   -4.980751    2.268014   -0.478001
     4   -0.377558    5.496340    0.173595
     5    4.271322   -3.473583   -2.704716
     6   -3.837751   -1.824853    1.992487
----------------------------------------
   Tot    0.105879    0.001918    0.206395
----------------------------------------
   Max    5.573909
   Res    3.167303    sqrt( Sum f_i^2 / 3N )
----------------------------------------
   Max    5.573909    constrained

Stress tensor Voigt[x,y,z,yz,xz,xy] (kbar):      -24.73      -15.26       -2.71       -1.43        3.99        1.39
(Free)E + p*V (eV/cell)     -917.4216
Target enthalpy (eV/cell)     -924.5294

siesta: Stress tensor (static) (eV/Ang**3):
        -0.014430    0.000583    0.002768
         0.000583   -0.009076   -0.000852
         0.002768   -0.000851   -0.001456

siesta: Pressure (static):         13.33142050  kBar

siesta: Stress tensor (total) (eV/Ang**3):
        -0.015438    0.000870    0.002489
         0.000870   -0.009528   -0.000890
         0.002489   -0.000890   -0.001689

siesta: Pressure (total):         14.23485524  kBar

siesta: Temp_ion =     841.724 K

                     ====================================
                        Begin MD step =      4
                     ====================================

outcoor: Atomic coordinates (Ang):                          
    0.06049842   -0.10199036   -0.01627379   1       1  O
    0.73747071    0.67401457    0.03045079   2       2  H
   -0.76838592    0.49526789   -0.12987334   2       3  H
   -0.04252480    0.10432153    3.06071223   1       4  O
    0.49754319   -0.65636533    2.67580090   2       5  H
   -0.73945778   -0.55904976    3.46741121   2       6  H

outcell: Unit cell vectors (Ang):
       10.000004    0.000000    0.000000
        0.000000   10.000004    0.000000
        0.000000    0.000000    8.000003

outcell: Cell vector modules (Ang)   :   10.000004   10.000004    8.000003
outcell: Cell angles (23,13,12) (deg):     90.0000     90.0000     90.0000
outcell: Cell volume (Ang**3)        :    800.0010
Gamma-point calculation with multiply-connected orbital pairs
Folding of H and S implicitly performed
<dSpData1D:S at geom step 4
  <sparsity:sparsity for geom step 4
    nrows_g=12 nrows=12 sparsity=1.0000 nnzs=144, refcount: 7>
  <dData1D:(new from dSpData1D) n=144, refcount: 1>
refcount: 1>
new_DM -- step:     4
Re-using DM from previous geometries...
Number of DMs in history: 1
 DM extrapolation coefficients: 
1   1.00000
New DM after history re-use:
<dSpData2D:SpM extrapolated using coords
  <sparsity:sparsity for geom step 4
    nrows_g=12 nrows=12 sparsity=1.0000 nnzs=144, refcount: 9>
  <dData2D:(temp array for extrapolation) n=144 m=1, refcount: 1>
refcount: 1>
No. of atoms with KB's overlaping orbs in proc 0. Max # of overlaps:       6      11

InitMesh: MESH = 64 x 64 x 50 = 204800
InitMesh: Mesh cutoff (required, used) =   100.000   107.960 Ry
New grid distribution [1]: sub = 2

        iscf     Eharris(eV)        E_KS(eV)     FreeEng(eV)     dDmax    Ef(eV) dHmax(eV)
   scf:    1     -925.952885     -925.249549     -925.249549  0.084875 -2.648110  0.907189
   scf:    2     -925.043493     -925.216254     -925.216254  0.085699 -3.058792  1.208592
   scf:    3     -925.329214     -925.295638     -925.295638  0.048038 -2.806181  0.071169
   scf:    4     -925.295836     -925.295738     -925.295738  0.001123 -2.794858  0.047059
   scf:    5     -925.295952     -925.295851     -925.295851  0.002707 -2.771923  0.008772
   scf:    6     -925.295860     -925.295856     -925.295856  0.000382 -2.769978  0.003870
   scf:    7     -925.295857     -925.295856     -925.295856  0.000164 -2.769160  0.000996
   scf:    8     -925.295856     -925.295856     -925.295856  0.000021 -2.769158  0.000782

SCF Convergence by DM+H criterion
max |DM_out - DM_in|         :     0.0000208680
max |H_out - H_in|      (eV) :     0.0007822830
SCF cycle converged after 8 iterations

Using DM_out to compute the final energy and forces
No. of atoms with KB's overlaping orbs in proc 0. Max # of overlaps:       6      11

siesta: E_KS(eV) =             -925.2959

siesta: Atomic forces (eV/Ang):
     1    0.471413   -2.804352    0.687112
     2    2.129903    1.501020    0.273409
     3   -2.545794    1.048693   -0.205834
     4   -0.706421    2.903901    0.399401
     5    2.747069   -2.135191   -2.166348
     6   -1.961762   -0.511596    1.168486
----------------------------------------
   Tot    0.134408    0.002474    0.156224
----------------------------------------
   Max    2.903901
   Res    1.738638    sqrt( Sum f_i^2 / 3N )
----------------------------------------
   Max    2.903901    constrained

Stress tensor Voigt[x,y,z,yz,xz,xy] (kbar):      -13.51       -7.94       -2.56       -1.95        2.84        1.34
(Free)E + p*V (eV/cell)     -921.2998
Target enthalpy (eV/cell)     -925.2959

siesta: Stress tensor (static) (eV/Ang**3):
        -0.008007    0.000831    0.002012
         0.000831   -0.004623   -0.001134
         0.002012   -0.001133   -0.000995

siesta: Pressure (static):          7.27659103  kBar

siesta: Stress tensor (total) (eV/Ang**3):
        -0.008432    0.000837    0.001771
         0.000838   -0.004958   -0.001216
         0.001771   -0.001215   -0.001595

siesta: Pressure (total):          8.00291853  kBar

siesta: Temp_ion =    1882.706 K

                     ====================================
                        Begin MD step =      5
                     ====================================

outcoor: Atomic coordinates (Ang):                          
    0.06599121   -0.11268358   -0.01549530   1       1  O
    0.80216836    0.70878807    0.04582623   2       2  H
   -0.84522190    0.49854233   -0.14285497   2       3  H
   -0.04510758    0.11661709    3.06614880   1       4  O
    0.50688968   -0.69793499    2.60041211   2       5  H
   -0.77789623   -0.58294131    3.53547350   2       6  H

outcell: Unit cell vectors (Ang):
       10.000004    0.000000    0.000000
        0.000000   10.000004    0.000000
        0.000000    0.000000    8.000003

outcell: Cell vector modules (Ang)   :   10.000004   10.000004    8.000003
outcell: Cell angles (23,13,12) (deg):     90.0000     90.0000     90.0000
outcell: Cell volume (Ang**3)        :    800.0010
Gamma-point calculation with multiply-connected orbital pairs
Folding of H and S implicitly performed
<dSpData1D:S at geom step 5
  <sparsity:sparsity for geom step 5
    nrows_g=12 nrows=12 sparsity=1.0000 nnzs=144, refcount: 7>
  <dData1D:(new from dSpData1D) n=144, refcount: 1>
refcount: 1>
new_DM -- step:     5
Re-using DM from previous geometries...
Number of DMs in history: 1
 DM extrapolation coefficients: 
1   1.00000
New DM after history re-use:
<dSpData2D:SpM extrapolated using coords
  <sparsity:sparsity for geom step 5
    nrows_g=12 nrows=12 sparsity=1.0000 nnzs=144, refcount: 9>
  <dData2D:(temp array for extrapolation) n=144 m=1, refcount: 1>
refcount: 1>
Note: For starting DM, Qtot, Tr[D*S] =         16.00000000         15.98389796
No. of atoms with KB's overlaping orbs in proc 0. Max # of overlaps:       6      11

InitMesh: MESH = 64 x 64 x 50 = 204800
InitMesh: Mesh cutoff (required, used) =   100.000   107.960 Ry
New grid distribution [1]: sub = 2

        iscf     Eharris(eV)        E_KS(eV)     FreeEng(eV)     dDmax    Ef(eV) dHmax(eV)
   scf:    1     -926.422003     -925.575671     -925.575671  0.138223 -3.282141  1.505478
   scf:    2     -924.501088     -925.351897     -925.351897  0.165329 -4.060996  2.619022
   scf:    3     -925.883599     -925.733814     -925.733814  0.099016 -3.563944  0.112397
   scf:    4     -925.734394     -925.734121     -925.734121  0.001614 -3.544265  0.083916
   scf:    5     -925.734679     -925.734411     -925.734411  0.003289 -3.521138  0.032074
   scf:    6     -925.734521     -925.734471     -925.734471  0.001809 -3.511993  0.005371
   scf:    7     -925.734476     -925.734474     -925.734474  0.000388 -3.510610  0.001827
   scf:    8     -925.734474     -925.734474     -925.734474  0.000065 -3.510567  0.000844

SCF Convergence by DM+H criterion
max |DM_out - DM_in|         :     0.0000645141
max |H_out - H_in|      (eV) :     0.0008436733
SCF cycle converged after 8 iterations

Using DM_out to compute the final energy and forces
No. of atoms with KB's overlaping orbs in proc 0. Max # of overlaps:       6      11

siesta: E_KS(eV) =             -925.7345

siesta: Atomic forces (eV/Ang):
     1    0.048581    0.060523    0.549402
     2   -0.123157   -0.192995    0.073126
     3    0.140193   -0.157897    0.135482
     4   -0.458249   -0.433208    0.097761
     5    0.584082    0.042727   -0.779674
     6   -0.032247    0.668883    0.042925
----------------------------------------
   Tot    0.159203   -0.011967    0.119023
----------------------------------------
   Max    0.779674
   Res    0.352526    sqrt( Sum f_i^2 / 3N )
----------------------------------------
   Max    0.779674    constrained

Stress tensor Voigt[x,y,z,yz,xz,xy] (kbar):       -2.05        0.30       -1.38       -1.78        1.04        0.74
(Free)E + p*V (eV/cell)     -925.2139
Target enthalpy (eV/cell)     -925.7345

siesta: Stress tensor (static) (eV/Ang**3):
        -0.000160    0.000602    0.000628
         0.000602    0.000946   -0.000855
         0.000629   -0.000855    0.000304

siesta: Pressure (static):         -0.58206003  kBar

siesta: Stress tensor (total) (eV/Ang**3):
        -0.001277    0.000460    0.000651
         0.000459    0.000186   -0.001113
         0.000652   -0.001113   -0.000861

siesta: Pressure (total):          1.04253567  kBar

siesta: Temp_ion =    2538.155 K

                     ====================================
                        Begin MD step =      6
                     ====================================

outcoor: Atomic coordinates (Ang):                          
    0.07151329   -0.12334031   -0.01438549   1       1  O
    0.86568716    0.74171423    0.06190164   2       2  H
   -0.92071595    0.50030539   -0.15453977   2       3  H
   -0.04796670    0.12865141    3.07164433   1       4  O
    0.52182699   -0.73909566    2.51756031   2       5  H
   -0.81664334   -0.60043033    3.60394668   2       6  H

outcell: Unit cell vectors (Ang):
       10.000004    0.000000    0.000000
        0.000000   10.000004    0.000000
        0.000000    0.000000    8.000003

outcell: Cell vector modules (Ang)   :   10.000004   10.000004    8.000003
outcell: Cell angles (23,13,12) (deg):     90.0000     90.0000     90.0000
outcell: Cell volume (Ang**3)        :    800.0010
Gamma-point calculation with multiply-connected orbital pairs
Folding of H and S implicitly performed
<dSpData1D:S at geom step 6
  <sparsity:sparsity for geom step 6
    nrows_g=12 nrows=12 sparsity=1.0000 nnzs=144, refcount: 7>
  <dData1D:(new from dSpData1D) n=144, refcount: 1>
refcount: 1>
new_DM -- step:     6
Re-using DM from previous geometries...
Number of DMs in history: 1
 DM extrapolation coefficients: 
1   1.00000
New DM after history re-use:
<dSpData2D:SpM extrapolated using coords
  <sparsity:sparsity for geom step 6
    nrows_g=12 nrows=12 sparsity=1.0000 nnzs=144, refcount: 9>
  <dData2D:(temp array for extrapolation) n=144 m=1, refcount: 1>
refcount: 1>
Note: For starting DM, Qtot, Tr[D*S] =         16.00000000         15.96535245
No. of atoms with KB's overlaping orbs in proc 0. Max # of overlaps:       6      11

InitMesh: MESH = 64 x 64 x 50 = 204800
InitMesh: Mesh cutoff (required, used) =   100.000   107.960 Ry
New grid distribution [1]: sub = 2

        iscf     Eharris(eV)        E_KS(eV)     FreeEng(eV)     dDmax    Ef(eV) dHmax(eV)
   scf:    1     -925.851090     -925.242193     -925.242193  0.133117 -2.411012  1.671756
   scf:    2     -923.242382     -924.766615     -924.766615  0.208901 -4.820120  3.429409
   scf:    3     -925.689997     -925.445217     -925.445217  0.131395 -4.246711  0.130316
   scf:    4     -925.446179     -925.445754     -925.445754  0.002224 -4.223812  0.097986
   scf:    5     -925.446513     -925.446147     -925.446147  0.003062 -4.204512  0.045821
   scf:    6     -925.446359     -925.446263     -925.446263  0.002541 -4.191560  0.004830
   scf:    7     -925.446267     -925.446266     -925.446266  0.000288 -4.190519  0.001970
   scf:    8     -925.446266     -925.446266     -925.446266  0.000074 -4.190368  0.001003
   scf:    9     -925.446266     -925.446266     -925.446266  0.000033 -4.190268  0.000579

SCF Convergence by DM+H criterion
max |DM_out - DM_in|         :     0.0000325881
max |H_out - H_in|      (eV) :     0.0005787885
SCF cycle converged after 9 iterations

Using DM_out to compute the final energy and forces
No. of atoms with KB's overlaping orbs in proc 0. Max # of overlaps:       6      11

siesta: E_KS(eV) =             -925.4463

siesta: Atomic forces (eV/Ang):
     1   -0.223187    1.731177    0.473872
     2   -1.556844   -1.222911   -0.087515
     3    1.862757   -0.812086    0.372492
     4   -0.255291   -2.559708   -0.239737
     5   -0.833110    1.506853    0.391405
     6    1.184710    1.327311   -0.822600
----------------------------------------
   Tot    0.179036   -0.029363    0.087917
----------------------------------------
   Max    2.559708
   Res    1.180889    sqrt( Sum f_i^2 / 3N )
----------------------------------------
   Max    2.559708    constrained

Stress tensor Voigt[x,y,z,yz,xz,xy] (kbar):        6.42        6.03        0.38       -1.36       -0.54        0.52
(Free)E + p*V (eV/cell)     -927.5824
Target enthalpy (eV/cell)     -925.4463

siesta: Stress tensor (static) (eV/Ang**3):
         0.005592    0.000433   -0.000571
         0.000433    0.004738   -0.000424
        -0.000570   -0.000424    0.001782

siesta: Pressure (static):         -6.46835652  kBar

siesta: Stress tensor (total) (eV/Ang**3):
         0.004006    0.000327   -0.000335
         0.000326    0.003766   -0.000849
        -0.000335   -0.000849    0.000240

siesta: Pressure (total):         -4.27817087  kBar

siesta: Temp_ion =    2151.051 K

                     ====================================
                        Begin MD step =      7
                     ====================================

outcoor: Atomic coordinates (Ang):                          
    0.07690079   -0.13295300   -0.01298990   1       1  O
    0.91430392    0.76293474    0.07713936   2       2  H
   -0.97837977    0.49429519   -0.16265909   2       3  H
   -0.05097979    0.13914203    3.07699528   1       4  O
    0.52878980   -0.76583280    2.43845502   2       5  H
   -0.84405046   -0.60521439    3.66454596   2       6  H

outcell: Unit cell vectors (Ang):
       10.000004    0.000000    0.000000
        0.000000   10.000004    0.000000
        0.000000    0.000000    8.000003

outcell: Cell vector modules (Ang)   :   10.000004   10.000004    8.000003
outcell: Cell angles (23,13,12) (deg):     90.0000     90.0000     90.0000
outcell: Cell volume (Ang**3)        :    800.0010
Gamma-point calculation with multiply-connected orbital pairs
Folding of H and S implicitly performed
<dSpData1D:S at geom step 7
  <sparsity:sparsity for geom step 7
    nrows_g=12 nrows=12 sparsity=1.0000 nnzs=144, refcount: 7>
  <dData1D:(new from dSpData1D) n=144, refcount: 1>
refcount: 1>
new_DM -- step:     7
Re-using DM from previous geometries...
Number of DMs in history: 1
 DM extrapolation coefficients: 
1   1.00000
New DM after history re-use:
<dSpData2D:SpM extrapolated using coords
  <sparsity:sparsity for geom step 7
    nrows_g=12 nrows=12 sparsity=1.0000 nnzs=144, refcount: 9>
  <dData2D:(temp array for extrapolation) n=144 m=1, refcount: 1>
refcount: 1>
Note: For starting DM, Qtot, Tr[D*S] =         16.00000000         15.96293038
No. of atoms with KB's overlaping orbs in proc 0. Max # of overlaps:       6      12

InitMesh: MESH = 64 x 64 x 50 = 204800
InitMesh: Mesh cutoff (required, used) =   100.000   107.960 Ry
New grid distribution [1]: sub = 2

        iscf     Eharris(eV)        E_KS(eV)     FreeEng(eV)     dDmax    Ef(eV) dHmax(eV)
   scf:    1     -925.182301     -924.763765     -924.763765  0.090283 -3.005064  1.354481
   scf:    2     -923.040428     -924.324614     -924.324614  0.179535 -5.164890  3.037910
   scf:    3     -925.085550     -924.896165     -924.896165  0.119010 -1.703976  0.114682
   scf:    4     -924.896980     -924.896609     -924.896609  0.001808 -1.686838  0.084284
   scf:    5     -924.897239     -924.896938     -924.896938  0.002655 -1.670588  0.035439
   scf:    6     -924.897070     -924.897011     -924.897011  0.001884 -1.660612  0.004007
   scf:    7     -924.897013     -924.897012     -924.897012  0.000158 -1.659896  0.001799
   scf:    8     -924.897012     -924.897012     -924.897012  0.000063 -1.659690  0.000803

SCF Convergence by DM+H criterion
max |DM_out - DM_in|         :     0.0000632933
max |H_out - H_in|      (eV) :     0.0008027825
SCF cycle converged after 8 iterations

Using DM_out to compute the final energy and forces
No. of atoms with KB's overlaping orbs in proc 0. Max # of overlaps:       6      12

siesta: E_KS(eV) =             -924.8970

siesta: Atomic forces (eV/Ang):
     1   -0.348641    2.462362    0.443993
     2   -2.286144   -1.707840   -0.190279
     3    2.737545   -1.064272    0.505202
     4   -0.175896   -3.519289   -0.444730
     5   -1.527227    2.202733    1.108836
     6    1.790218    1.585100   -1.357214
----------------------------------------
   Tot    0.189856   -0.041206    0.065807
----------------------------------------
   Max    3.519289
   Res    1.700178    sqrt( Sum f_i^2 / 3N )
----------------------------------------
   Max    3.519289    constrained

Stress tensor Voigt[x,y,z,yz,xz,xy] (kbar):       12.29        9.40        2.47       -0.80       -1.82        0.57
(Free)E + p*V (eV/cell)     -928.9194
Target enthalpy (eV/cell)     -924.8970

siesta: Stress tensor (static) (eV/Ang**3):
         0.008897    0.000388   -0.001350
         0.000387    0.006608   -0.000074
        -0.001350   -0.000073    0.003054

siesta: Pressure (static):         -9.91191292  kBar

siesta: Stress tensor (total) (eV/Ang**3):
         0.007670    0.000354   -0.001137
         0.000354    0.005870   -0.000497
        -0.001137   -0.000497    0.001545

siesta: Pressure (total):         -8.05576078  kBar

siesta: Temp_ion =    1346.214 K

                     ====================================
                        Begin MD step =      8
                     ====================================

outcoor: Atomic coordinates (Ang):                          
    0.08207802   -0.14108072   -0.01132656   1       1  O
    0.94103780    0.76780788    0.09055574   2       2  H
   -1.00983993    0.47809783   -0.16594265   2       3  H
   -0.05409896    0.14751028    3.08207803   1       4  O
    0.52113406   -0.77148548    2.36996347   2       5  H
   -0.85432169   -0.59482594    3.71215405   2       6  H

outcell: Unit cell vectors (Ang):
       10.000004    0.000000    0.000000
        0.000000   10.000004    0.000000
        0.000000    0.000000    8.000003

outcell: Cell vector modules (Ang)   :   10.000004   10.000004    8.000003
outcell: Cell angles (23,13,12) (deg):     90.0000     90.0000     90.0000
outcell: Cell volume (Ang**3)        :    800.0010
Gamma-point calculation with multiply-connected orbital pairs
Folding of H and S implicitly performed
<dSpData1D:S at geom step 8
  <sparsity:sparsity for geom step 8
    nrows_g=12 nrows=12 sparsity=1.0000 nnzs=144, refcount: 7>
  <dData1D:(new from dSpData1D) n=144, refcount: 1>
refcount: 1>
new_DM -- step:     8
Re-using DM from previous geometries...
Number of DMs in history: 1
 DM extrapolation coefficients: 
1   1.00000
New DM after history re-use:
<dSpData2D:SpM extrapolated using coords
  <sparsity:sparsity for geom step 8
    nrows_g=12 nrows=12 sparsity=1.0000 nnzs=144, refcount: 9>
  <dData2D:(temp array for extrapolation) n=144 m=1, refcount: 1>
refcount: 1>
Note: For starting DM, Qtot, Tr[D*S] =         16.00000000         15.97828501
No. of atoms with KB's overlaping orbs in proc 0. Max # of overlaps:       6      12

InitMesh: MESH = 64 x 64 x 50 = 204800
InitMesh: Mesh cutoff (required, used) =   100.000   107.960 Ry
New grid distribution [1]: sub = 2

        iscf     Eharris(eV)        E_KS(eV)     FreeEng(eV)     dDmax    Ef(eV) dHmax(eV)
   scf:    1     -924.758178     -924.491312     -924.491312  0.072838 -3.333487  0.732596
   scf:    2     -924.003125     -924.363473     -924.363473  0.096377 -3.631340  1.642297
   scf:    3     -924.573831     -924.524280     -924.524280  0.066115 -3.413617  0.072490
   scf:    4     -924.524670     -924.524481     -924.524481  0.001281 -3.404586  0.050952
   scf:    5     -924.524804     -924.524657     -924.524657  0.002621 -3.389880  0.008502
   scf:    6     -924.524669     -924.524663     -924.524663  0.000623 -3.387262  0.003051
   scf:    7     -924.524664     -924.524664     -924.524664  0.000120 -3.386861  0.001289
   scf:    8     -924.524664     -924.524664     -924.524664  0.000062 -3.386688  0.000792

SCF Convergence by DM+H criterion
max |DM_out - DM_in|         :     0.0000623332
max |H_out - H_in|      (eV) :     0.0007922945
SCF cycle converged after 8 iterations

Using DM_out to compute the final energy and forces
No. of atoms with KB's overlaping orbs in proc 0. Max # of overlaps:       6      12

siesta: E_KS(eV) =             -924.5247

siesta: Atomic forces (eV/Ang):
     1   -0.390534    2.640635    0.436768
     2   -2.581524   -1.859156   -0.248859
     3    3.097570   -1.095947    0.570297
     4   -0.134221   -3.766899   -0.561408
     5   -1.810905    2.442700    1.497592
     6    2.013341    1.592645   -1.646982
----------------------------------------
   Tot    0.193728   -0.046022    0.047407
----------------------------------------
   Max    3.766899
   Res    1.884652    sqrt( Sum f_i^2 / 3N )
----------------------------------------
   Max    3.766899    constrained

Stress tensor Voigt[x,y,z,yz,xz,xy] (kbar):       15.65       10.71        4.58       -0.17       -2.76        0.65
(Free)E + p*V (eV/cell)     -929.6745
Target enthalpy (eV/cell)     -924.5247

siesta: Stress tensor (static) (eV/Ang**3):
         0.010336    0.000371   -0.001764
         0.000370    0.007107    0.000177
        -0.001764    0.000178    0.004044

siesta: Pressure (static):        -11.47531141  kBar

siesta: Stress tensor (total) (eV/Ang**3):
         0.009768    0.000405   -0.001721
         0.000405    0.006686   -0.000105
        -0.001721   -0.000105    0.002858

siesta: Pressure (total):        -10.31365676  kBar

siesta: Temp_ion =     788.681 K

                     ====================================
                        Begin MD step =      9
                     ====================================

outcoor: Atomic coordinates (Ang):                          
    0.08701974   -0.14761595   -0.00939981   1       1  O
    0.94306145    0.75488525    0.10159005   2       2  H
   -1.01165027    0.45141011   -0.16376734   2       3  H
   -0.05729907    0.15360682    3.08682221   1       4  O
    0.49614442   -0.75375674    2.31580680   2       5  H
   -0.84532130   -0.56919275    3.74399729   2       6  H

outcell: Unit cell vectors (Ang):
       10.000004    0.000000    0.000000
        0.000000   10.000004    0.000000
        0.000000    0.000000    8.000003

outcell: Cell vector modules (Ang)   :   10.000004   10.000004    8.000003
outcell: Cell angles (23,13,12) (deg):     90.0000     90.0000     90.0000
outcell: Cell volume (Ang**3)        :    800.0010
Gamma-point calculation with multiply-connected orbital pairs
Folding of H and S implicitly performed
<dSpData1D:S at geom step 9
  <sparsity:sparsity for geom step 9
    nrows_g=12 nrows=12 sparsity=1.0000 nnzs=144, refcount: 7>
  <dData1D:(new from dSpData1D) n=144, refcount: 1>
refcount: 1>
new_DM -- step:     9
Re-using DM from previous geometries...
Number of DMs in history: 1
 DM extrapolation coefficients: 
1   1.00000
New DM after history re-use:
<dSpData2D:SpM extrapolated using coords
  <sparsity:sparsity for geom step 9
    nrows_g=12 nrows=12 sparsity=1.0000 nnzs=144, refcount: 9>
  <dData2D:(temp array for extrapolation) n=144 m=1, refcount: 1>
refcount: 1>
No. of atoms with KB's overlaping orbs in proc 0. Max # of overlaps:       6      12

InitMesh: MESH = 64 x 64 x 50 = 204800
InitMesh: Mesh cutoff (required, used) =   100.000   107.960 Ry
New grid distribution [1]: sub = 2

        iscf     Eharris(eV)        E_KS(eV)     FreeEng(eV)     dDmax    Ef(eV) dHmax(eV)
   scf:    1     -924.487493     -924.522864     -924.522864  0.056810 -3.394399  0.306953
   scf:    2     -924.490413     -924.514903     -924.514903  0.035383 -3.271752  0.547539
   scf:    3     -924.529272     -924.526044     -924.526044  0.023951 -3.353858  0.040455
   scf:    4     -924.526235     -924.526143     -924.526143  0.001477 -3.351582  0.024283
   scf:    5     -924.526255     -924.526207     -924.526207  0.002751 -3.347644  0.004913
   scf:    6     -924.526210     -924.526208     -924.526208  0.000169 -3.347549  0.002623
   scf:    7     -924.526209     -924.526209     -924.526209  0.000192 -3.347430  0.000491
   scf:    8     -924.526209     -924.526209     -924.526209  0.000021 -3.347442  0.000278

SCF Convergence by DM+H criterion
max |DM_out - DM_in|         :     0.0000205470
max |H_out - H_in|      (eV) :     0.0002775859
SCF cycle converged after 8 iterations

Using DM_out to compute the final energy and forces
No. of atoms with KB's overlaping orbs in proc 0. Max # of overlaps:       6      12

siesta: E_KS(eV) =             -924.5262

siesta: Atomic forces (eV/Ang):
     1   -0.387349    2.447665    0.443268
     2   -2.583757   -1.775096   -0.273172
     3    3.115512   -0.989024    0.586617
     4   -0.050282   -3.573333   -0.669775
     5   -1.882111    2.429127    1.693030
     6    1.977514    1.413649   -1.748089
----------------------------------------
   Tot    0.189528   -0.047013    0.031880
----------------------------------------
   Max    3.573333
   Res    1.852350    sqrt( Sum f_i^2 / 3N )
----------------------------------------
   Max    3.573333    constrained

Stress tensor Voigt[x,y,z,yz,xz,xy] (kbar):       16.27       10.06        6.35        0.48       -3.27        0.63
(Free)E + p*V (eV/cell)     -929.9664
Target enthalpy (eV/cell)     -924.5262

siesta: Stress tensor (static) (eV/Ang**3):
         0.010325    0.000291   -0.001900
         0.000291    0.006610    0.000383
        -0.001900    0.000383    0.004740

siesta: Pressure (static):        -11.57565131  kBar

siesta: Stress tensor (total) (eV/Ang**3):
         0.010154    0.000391   -0.002038
         0.000390    0.006281    0.000296
        -0.002038    0.000297    0.003966

siesta: Pressure (total):        -10.89509518  kBar

siesta: Temp_ion =     790.934 K

                     ====================================
                        Begin MD step =     10
                     ====================================

outcoor: Atomic coordinates (Ang):                          
    0.09172785   -0.15267507   -0.00720573   1       1  O
    0.92035349    0.72497148    0.11000956   2       2  H
   -0.98363906    0.41525548   -0.15597696   2       3  H
   -0.06052950    0.15754839    3.09116246   1       4  O
    0.45313930   -0.71277650    2.27785575   2       5  H
   -0.81739223   -0.53002818    3.75910790   2       6  H

outcell: Unit cell vectors (Ang):
       10.000004    0.000000    0.000000
        0.000000   10.000004    0.000000
        0.000000    0.000000    8.000003

outcell: Cell vector modules (Ang)   :   10.000004   10.000004    8.000003
outcell: Cell angles (23,13,12) (deg):     90.0000     90.0000     90.0000
outcell: Cell volume (Ang**3)        :    800.0010
Gamma-point calculation with multiply-connected orbital pairs
Folding of H and S implicitly performed
<dSpData1D:S at geom step 10
  <sparsity:sparsity for geom step 10
    nrows_g=12 nrows=12 sparsity=1.0000 nnzs=144, refcount: 7>
  <dData1D:(new from dSpData1D) n=144, refcount: 1>
refcount: 1>
new_DM -- step:    10
Re-using DM from previous geometries...
Number of DMs in history: 1
 DM extrapolation coefficients: 
1   1.00000
New DM after history re-use:
<dSpData2D:SpM extrapolated using coords
  <sparsity:sparsity for geom step 10
    nrows_g=12 nrows=12 sparsity=1.0000 nnzs=144, refcount: 9>
  <dData2D:(temp array for extrapolation) n=144 m=1, refcount: 1>
refcount: 1>
Note: For starting DM, Qtot, Tr[D*S] =         16.00000000         16.03076267
No. of atoms with KB's overlaping orbs in proc 0. Max # of overlaps:       6      12

InitMesh: MESH = 64 x 64 x 50 = 204800
InitMesh: Mesh cutoff (required, used) =   100.000   107.960 Ry
New grid distribution [1]: sub = 2

        iscf     Eharris(eV)        E_KS(eV)     FreeEng(eV)     dDmax    Ef(eV) dHmax(eV)
   scf:    1     -924.291858     -924.844205     -924.844205  0.085393 -3.187181  1.016334
   scf:    2     -924.058460     -924.641499     -924.641499  0.134052 -2.672871  2.224920
   scf:    3     -924.978894     -924.901204     -924.901204  0.093294 -3.035085  0.085755
   scf:    4     -924.901754     -924.901494     -924.901494  0.001821 -3.036139  0.058773
   scf:    5     -924.901891     -924.901714     -924.901714  0.003111 -3.042150  0.014516
   scf:    6     -924.901723     -924.901717     -924.901717  0.000709 -3.044680  0.003452
   scf:    7     -924.901718     -924.901718     -924.901718  0.000165 -3.045147  0.001907
   scf:    8     -924.901718     -924.901718     -924.901718  0.000093 -3.045245  0.001076
   scf:    9     -924.901718     -924.901718     -924.901718  0.000062 -3.045258  0.000639

SCF Convergence by DM+H criterion
max |DM_out - DM_in|         :     0.0000616533
max |H_out - H_in|      (eV) :     0.0006390010
SCF cycle converged after 9 iterations

Using DM_out to compute the final energy and forces
No. of atoms with KB's overlaping orbs in proc 0. Max # of overlaps:       6      12

siesta: E_KS(eV) =             -924.9017

siesta: Atomic forces (eV/Ang):
     1   -0.342617    1.874509    0.462446
     2   -2.278224   -1.436432   -0.256704
     3    2.775452   -0.747030    0.547870
     4    0.150658   -3.004646   -0.848752
     5   -1.817286    2.234513    1.744498
     6    1.690363    1.034381   -1.638877
----------------------------------------
   Tot    0.178346   -0.044705    0.010481
----------------------------------------
   Max    3.004646
   Res    1.623592    sqrt( Sum f_i^2 / 3N )
----------------------------------------
   Max    3.004646    constrained

Stress tensor Voigt[x,y,z,yz,xz,xy] (kbar):       13.78        7.49        7.49        1.11       -3.27        0.38
(Free)E + p*V (eV/cell)     -929.6877
Target enthalpy (eV/cell)     -924.9017

siesta: Stress tensor (static) (eV/Ang**3):
         0.008901    0.000069   -0.001794
         0.000068    0.005236    0.000587
        -0.001795    0.000588    0.005089

siesta: Pressure (static):        -10.26751039  kBar

siesta: Stress tensor (total) (eV/Ang**3):
         0.008599    0.000237   -0.002041
         0.000237    0.004675    0.000690
        -0.002041    0.000690    0.004673

siesta: Pressure (total):         -9.58501013  kBar

siesta: Temp_ion =    1354.475 K

siesta: Program's energy decomposition (eV):
siesta: Ebs     =      -181.326896
siesta: Eions   =      1621.026762
siesta: Ena     =       348.612053
siesta: Ekin    =       674.779800
siesta: Enl     =      -109.504252
siesta: Eso     =         0.000000
siesta: Edftu   =         0.000000
siesta: DEna    =        -4.162043
siesta: DUscf   =         2.901189
siesta: DUext   =         0.000000
siesta: Ex      =      -191.876868
siesta: Ec      =       -24.624834
siesta: Exc     =      -216.501702
siesta: EbV     =         0.000000
siesta: eta*DQ  =         0.000000
siesta: Emadel  =         0.000000
siesta: Emeta   =         0.000000
siesta: Emolmec =         0.000000
siesta: Ekinion =         0.875397
siesta: Eharris =      -924.026321
siesta: Etot    =      -924.026321
siesta: FreeEng =      -924.026321

siesta: Final energy (eV):
siesta:  Band Struct. =    -181.326896
siesta:       Kinetic =     674.779800
siesta:       Hartree =     899.677437
siesta:         Edftu =       0.000000
siesta:       Eso     =       0.000000
siesta:    Ext. field =       0.000000
siesta:         Exch. =    -191.876868
siesta:         Corr. =     -24.624834
siesta:     Bulk bias =       0.000000
siesta:   Exch.-corr. =    -216.501702
siesta:  Ion-electron =   -2371.848642
siesta:       Ion-ion =      88.991389
siesta:       Ekinion =       0.875397
siesta: D3 dispersion =       0.000000
siesta:         Total =    -924.026321
siesta:         Fermi =      -3.045258

siesta: Atomic forces (eV/Ang):
siesta:      1   -0.342617    1.874509    0.462446
siesta:      2   -2.278224   -1.436432   -0.256704
siesta:      3    2.775452   -0.747030    0.547870
siesta:      4    0.150658   -3.004646   -0.848752
siesta:      5   -1.817286    2.234513    1.744498
siesta:      6    1.690363    1.034381   -1.638877
siesta: ----------------------------------------
siesta:    Tot    0.178346   -0.044705    0.010481

siesta: Stress tensor (static) (eV/Ang**3):
siesta:     0.008901    0.000069   -0.001794
siesta:     0.000068    0.005236    0.000587
siesta:    -0.001795    0.000588    0.005089

siesta: Cell volume =        800.000957 Ang**3

siesta: Pressure (static):
siesta:                Solid            Molecule  Units
siesta:          -0.00006980          0.00000398  Ry/Bohr**3
siesta:          -0.00640848          0.00036531  eV/Ang**3
siesta:         -10.26751039          0.58528770  kBar
(Free)E+ p_basis*V_orbitals  =        -924.251704
(Free)Eharris+ p_basis*V_orbitals  =        -924.251704

siesta: Electric dipole (a.u.)  =   -0.221738    0.068209   -0.000000
siesta: Electric dipole (Debye) =   -0.563603    0.173369   -0.000000

cite: Please see "verlet.bib" for an exhaustive BiBTeX file.
cite: Please clearly indicate Siesta version in published work: 5.0.0-alpha-123-gfb8fd7d02
cite: This calculation has made use of the following articles
cite: which are encouraged to be cited in a published work.
        Primary SIESTA paper
          DOI: www.doi.org/10.1088/0953-8984/14/11/302


timer: Elapsed wall time (sec) =       2.033
timer: CPU execution times (sec):

Routine            Calls   Time/call    Tot.time        %
siesta                 1       2.033       2.033   100.00
Setup                  1       0.055       0.055     2.71
bands                  1       0.000       0.000     0.00
KSV_init               1       0.000       0.000     0.00
IterGeom              10       0.198       1.977    97.27
geom_init             10       0.036       0.359    17.66
state_init            10       0.000       0.005     0.23
hsparse               10       0.000       0.000     0.02
overlap               10       0.000       0.002     0.12
Setup_H0              10       0.020       0.204    10.01
naefs                 20       0.000       0.001     0.03
MolMec                20       0.000       0.000     0.00
kinefsm               20       0.000       0.002     0.12
nlefsm                20       0.001       0.014     0.70
DHSCF_Init            10       0.019       0.188     9.23
DHSCF1                10       0.003       0.026     1.27
INITMESH              10       0.000       0.000     0.00
DHSCF2                10       0.016       0.162     7.96
REMESH                10       0.001       0.006     0.28
REORD                296       0.000       0.042     2.05
PHION                 10       0.005       0.053     2.62
COMM_BSC             462       0.000       0.053     2.59
POISON               118       0.006       0.697    34.27
fft                  236       0.002       0.537    26.42
setup_H               98       0.015       1.442    70.94
DHSCF                108       0.016       1.744    85.78
DHSCF3               108       0.015       1.579    77.70
rhoofd               108       0.001       0.071     3.48
XC                   108       0.005       0.575    28.31
GXC-CellXC           108       0.005       0.517    25.44
gridxc@cellXC        108       0.005       0.517    25.43
vmat                 108       0.001       0.060     2.93
IterSCF               88       0.015       1.301    64.00
compute_dm            88       0.000       0.004     0.21
diagon                88       0.000       0.004     0.20
r-eigvec              88       0.000       0.003     0.16
r-buildHS             88       0.000       0.000     0.00
rdiag                 88       0.000       0.003     0.15
rdiag1                88       0.000       0.000     0.02
rdiag2                88       0.000       0.000     0.02
rdiag3                88       0.000       0.002     0.08
rdiag4                88       0.000       0.000     0.01
r-buildD              88       0.000       0.000     0.02
MIXER                 78       0.000       0.001     0.03
PostSCF               10       0.031       0.314    15.43
DHSCF4                10       0.016       0.164     8.08
dfscf                 10       0.011       0.114     5.59
overfsm               10       0.000       0.000     0.02
state_analysis        10       0.000       0.001     0.05
siesta_move           10       0.000       0.002     0.08
Analysis               1       0.000       0.000     0.01
optical                1       0.000       0.000     0.00
  

>> End of run:  28-SEP-2023  15:37:41
Job completed
