BEGIN_INFO
  #  
  #  Band-XCRYSDEN-Structure-File
  #  
  Fermi energy:    -5.2908
END_INFO

BEGIN_BLOCK_BANDGRID_3D
  diamond
  BANDGRID_3D_spin_2
    0
   14   14   14
      0.00000000      0.00000000      0.00000000
      0.93633300      0.93633300     -0.93633300
     -0.93633300      0.93633300      0.93633300
      0.93633300     -0.93633300      0.93633300
  END_BANDGRID_3D
END_BLOCK_BANDGRID_3D
