ANIMSTEPS             20
CRYSTAL
PRIMVEC
          1.775500000       1.775500000       0.000000000
          0.000000000       1.775500000       1.775500000
          1.775500000       0.000000000       1.775500000
PRIMCOORD              1
        2  1
   6     0.008441    -0.014181     0.002827
   6     0.879309     0.901931     0.884923
PRIMCOORD              2
        2  1
   6     0.012225    -0.020382     0.004505
   6     0.875525     0.908132     0.883245
PRIMCOORD              3
        2  1
   6     0.009393    -0.015212     0.004576
   6     0.878357     0.902962     0.883174
PRIMCOORD              4
        2  1
   6     0.001476    -0.001551     0.002591
   6     0.886274     0.889301     0.885159
PRIMCOORD              5
        2  1
   6    -0.007266     0.012978    -0.000861
   6     0.895016     0.874772     0.888611
PRIMCOORD              6
        2  1
   6    -0.011823     0.020093    -0.003456
   6     0.899573     0.867657     0.891206
PRIMCOORD              7
        2  1
   6    -0.009368     0.015629    -0.003157
   6     0.897118     0.872121     0.890907
PRIMCOORD              8
        2  1
   6    -0.001381     0.002157    -0.000489
   6     0.889131     0.885593     0.888239
PRIMCOORD              9
        2  1
   6     0.007397    -0.012547     0.002469
   6     0.880353     0.900297     0.885281
PRIMCOORD             10
        2  1
   6     0.012077    -0.020176     0.004378
   6     0.875673     0.907926     0.883372
PRIMCOORD             11
        2  1
   6     0.010213    -0.016543     0.004732
   6     0.877537     0.904293     0.883018
PRIMCOORD             12
        2  1
   6     0.002829    -0.003685     0.003040
   6     0.884921     0.891435     0.884710
PRIMCOORD             13
        2  1
   6    -0.006123     0.011239    -0.000343
   6     0.893873     0.876511     0.888093
PRIMCOORD             14
        2  1
   6    -0.011570     0.019752    -0.003264
   6     0.899320     0.867998     0.891014
PRIMCOORD             15
        2  1
   6    -0.010169     0.016892    -0.003435
   6     0.897919     0.870858     0.891185
PRIMCOORD             16
        2  1
   6    -0.002746     0.004286    -0.000980
   6     0.890496     0.883464     0.888730
PRIMCOORD             17
        2  1
   6     0.006258    -0.010770     0.002079
   6     0.881492     0.898520     0.885671
PRIMCOORD             18
        2  1
   6     0.011781    -0.019742     0.004213
   6     0.875969     0.907492     0.883537
PRIMCOORD             19
        2  1
   6     0.010908    -0.017683     0.004843
   6     0.876842     0.905433     0.882907
PRIMCOORD             20
        2  1
   6     0.004148    -0.005772     0.003457
   6     0.883602     0.893522     0.884293
