ATOMS
        6          0.00414818          1.76972850          1.77895689
        6          1.77964831          1.76972850          0.00345676
        6          0.88360189          0.89352168          0.88429331
BEGIN_BLOCK_DATAGRID_3D
 DATA_from:diamond.RHO
 BEGIN_DATAGRID_3D_RHO:spin_1
    10    10    10
  0.0000000E+00  0.0000000E+00  0.0000000E+00
  2.0000000E+00  0.0000000E+00  0.0000000E+00
  0.0000000E+00  2.0000000E+00  0.0000000E+00
  0.0000000E+00  0.0000000E+00  2.0000000E+00
  2.48466E-02  1.11728E-01  1.22107E-01  7.65460E-02  4.20489E-02  2.25470E-02
  1.24828E-02  7.86830E-03  6.61635E-03  7.99737E-03  1.20713E-01  1.34949E-01
  1.12338E-01  7.19903E-02  4.15299E-02  2.34418E-02  1.37306E-02  9.14426E-03
  7.87192E-03  9.25580E-03  1.15836E-01  1.09754E-01  8.88341E-02  6.27086E-02
  4.13205E-02  2.68620E-02  1.82351E-02  1.38296E-02  1.25559E-02  1.40092E-02
  7.14404E-02  6.96349E-02  6.22902E-02  5.17839E-02  4.13008E-02  3.29409E-02
  2.71925E-02  2.38471E-02  2.28544E-02  2.41952E-02  3.97600E-02  4.06978E-02
  4.15784E-02  4.17807E-02  4.16516E-02  4.19044E-02  4.23302E-02  4.26182E-02
  4.29013E-02  4.33160E-02  2.19023E-02  2.35647E-02  2.76213E-02  3.38235E-02
  4.23789E-02  5.31622E-02  6.47720E-02  7.42026E-02  7.82471E-02  7.56010E-02
  1.24698E-02  1.41205E-02  1.89759E-02  2.79411E-02  4.25599E-02  6.43117E-02
  9.18478E-02  1.15202E-01  1.23855E-01  1.17665E-01  7.96261E-03  9.43030E-03
  1.42139E-02  2.39466E-02  4.17217E-02  7.17356E-02  1.12595E-01  1.34419E-01
  1.08233E-01  1.35445E-01  6.61499E-03  7.96430E-03  1.25346E-02  2.21792E-02
  4.05272E-02  7.29961E-02  1.17625E-01  1.18452E-01  2.61182E-02  1.12188E-01
  7.90276E-03  9.25604E-03  1.37691E-02  2.30055E-02  3.98985E-02  6.83836E-02
  1.07497E-01  1.33859E-01  1.20949E-01  1.34588E-01  1.13958E-01  1.35615E-01
  1.14914E-01  7.32231E-02  4.19220E-02  2.35152E-02  1.37159E-02  9.13686E-03
  7.95172E-03  9.50220E-03  1.34652E-01  1.46689E-01  1.21629E-01  8.30501E-02
  5.17474E-02  3.10950E-02  1.87785E-02  1.21105E-02  9.14841E-03  9.03616E-03
  1.09100E-01  1.19085E-01  1.08615E-01  8.62501E-02  6.23486E-02  4.22367E-02
  2.79574E-02  1.88955E-02  1.38063E-02  1.19186E-02  6.93405E-02  8.14347E-02
  8.64555E-02  8.27832E-02  7.12867E-02  5.65102E-02  4.26615E-02  3.15693E-02
  2.38486E-02  1.94849E-02  4.06139E-02  5.19665E-02  6.39369E-02  7.28232E-02
  7.56193E-02  7.21418E-02  6.36555E-02  5.29897E-02  4.27749E-02  3.44482E-02
  2.35572E-02  3.22301E-02  4.44986E-02  5.90737E-02  7.36807E-02  8.46759E-02
  8.88206E-02  8.54880E-02  7.48325E-02  6.02104E-02  1.41313E-02  1.99185E-02
  2.98840E-02  4.49213E-02  6.52333E-02  8.89943E-02  1.12177E-01  1.24953E-01
  1.16724E-01  9.48301E-02  9.43701E-03  1.28506E-02  2.00321E-02  3.26900E-02
  5.31609E-02  8.37684E-02  1.22317E-01  1.48691E-01  1.35312E-01  1.21665E-01
  7.94801E-03  9.44715E-03  1.42157E-02  2.38680E-02  4.14016E-02  7.08273E-02
  1.10845E-01  1.34709E-01  1.14358E-01  1.35679E-01  9.19642E-03  9.03426E-03
  1.19049E-02  1.88807E-02  3.22720E-02  5.51977E-02  8.74091E-02  1.16604E-01
  1.34662E-01  1.46340E-01  1.20745E-01  1.14328E-01  9.19047E-02  6.39818E-02
  4.15450E-02  2.67011E-02  1.79807E-02  1.36325E-02  1.25541E-02  1.43520E-02
  1.11099E-01  1.21070E-01  1.09749E-01  8.64198E-02  6.20358E-02  4.18242E-02
  2.75665E-02  1.85802E-02  1.36240E-02  1.19152E-02  8.80444E-02  1.08319E-01
  1.15774E-01  1.08425E-01  8.81603E-02  6.35417E-02  4.27251E-02  2.76708E-02
  1.80391E-02  1.29056E-02  6.19929E-02  8.64357E-02  1.09877E-01  1.21256E-01
  1.11270E-01  8.87601E-02  6.40158E-02  4.23006E-02  2.69892E-02  1.78139E-02
  4.15552E-02  6.40520E-02  9.20455E-02  1.14508E-01  1.20950E-01  1.12305E-01
  8.96503E-02  6.32782E-02  4.22852E-02  2.79798E-02  2.76927E-02  4.46362E-02
  6.83264E-02  9.38670E-02  1.15560E-01  1.23544E-01  1.11176E-01  8.86800E-02
  6.53049E-02  4.51013E-02  1.90633E-02  3.00073E-02  4.67253E-02  6.88112E-02
  9.35617E-02  1.12635E-01  1.19153E-01  1.12626E-01  9.34928E-02  6.87198E-02
  1.42798E-02  2.01273E-02  3.01120E-02  4.51159E-02  6.52912E-02  8.86515E-02
  1.11134E-01  1.23390E-01  1.15337E-01  9.36980E-02  1.25463E-02  1.42707E-02
  1.91192E-02  2.79717E-02  4.22655E-02  6.32449E-02  8.95541E-02  1.12083E-01
  1.20755E-01  1.14309E-01  1.36901E-02  1.19101E-02  1.31696E-02  1.78064E-02
  2.69741E-02  4.22627E-02  6.39196E-02  8.86070E-02  1.11092E-01  1.21000E-01
  7.54012E-02  7.26718E-02  6.38686E-02  5.19698E-02  4.06697E-02  3.19852E-02
  2.62002E-02  2.29984E-02  2.23458E-02  2.42361E-02  7.11462E-02  8.26777E-02
  8.64430E-02  8.15186E-02  6.94654E-02  5.46791E-02  4.10208E-02  3.02425E-02
  2.29274E-02  1.90186E-02  6.22988E-02  8.62535E-02  1.08725E-01  1.19259E-01
  1.09265E-01  8.69786E-02  6.24107E-02  4.10743E-02  2.61594E-02  1.73258E-02
  5.17716E-02  8.31617E-02  1.21818E-01  1.46633E-01  1.34490E-01  1.16725E-01
  8.74043E-02  5.50789E-02  3.21567E-02  1.87969E-02  4.19982E-02  7.33789E-02
  1.15094E-01  1.35366E-01  1.13766E-01  1.34937E-01  1.10641E-01  7.05549E-02
  4.12226E-02  2.37682E-02  3.41278E-02  5.96374E-02  9.43911E-02  1.21768E-01
  1.35624E-01  1.48721E-01  1.21773E-01  8.33380E-02  5.29250E-02  3.25696E-02
  2.82455E-02  4.54177E-02  6.92890E-02  9.48189E-02  1.16500E-01  1.24373E-01
  1.11492E-01  8.84973E-02  6.49456E-02  4.47798E-02  2.41990E-02  3.30780E-02
  4.54739E-02  6.00547E-02  7.45009E-02  8.49982E-02  8.82956E-02  8.42353E-02
  7.33886E-02  5.89397E-02  2.23311E-02  2.41274E-02  2.82038E-02  3.43010E-02
  4.25522E-02  5.27125E-02  6.33463E-02  7.18498E-02  7.54194E-02  7.27638E-02
  2.30082E-02  1.90088E-02  1.79373E-02  1.93840E-02  2.37272E-02  3.14306E-02
  4.25154E-02  5.63898E-02  7.12472E-02  8.28755E-02  4.15245E-02  4.17080E-02
  4.15703E-02  4.07545E-02  3.98713E-02  3.96723E-02  3.99358E-02  4.03403E-02
  4.10577E-02  4.22525E-02  4.12328E-02  5.17641E-02  6.23370E-02  6.97620E-02
  7.16334E-02  6.78219E-02  5.95481E-02  4.94824E-02  4.01074E-02  3.27372E-02
  4.13227E-02  6.27640E-02  8.89553E-02  1.09921E-01  1.16033E-01  1.06957E-01
  8.46999E-02  5.94904E-02  3.96726E-02  2.63556E-02  4.16023E-02  7.21374E-02
  1.12512E-01  1.34771E-01  1.20557E-01  1.33955E-01  1.07309E-01  6.80657E-02
  3.96276E-02  2.28151E-02  4.21804E-02  7.67711E-02  1.22313E-01  1.11525E-01
  2.57557E-02  1.19110E-01  1.17072E-01  7.24285E-02  4.01788E-02  2.19896E-02
  4.30439E-02  7.49600E-02  1.17102E-01  1.35507E-01  1.09257E-01  1.35096E-01
  1.11755E-01  7.10405E-02  4.13441E-02  2.37701E-02  4.32631E-02  6.64482E-02
  9.50215E-02  1.17452E-01  1.23316E-01  1.14361E-01  9.09028E-02  6.36557E-02
  4.22083E-02  2.77925E-02  4.23702E-02  5.41653E-02  6.63883E-02  7.52212E-02
  7.76010E-02  7.34485E-02  6.40919E-02  5.26856E-02  4.21191E-02  3.37445E-02
  4.10324E-02  4.21326E-02  4.29890E-02  4.29973E-02  4.24991E-02  4.21997E-02
  4.19599E-02  4.16424E-02  4.15460E-02  4.18374E-02  4.01816E-02  3.27209E-02
  2.74034E-02  2.39811E-02  2.26396E-02  2.36525E-02  2.70382E-02  3.28679E-02
  4.13675E-02  5.20446E-02  2.23907E-02  2.35173E-02  2.68350E-02  3.21467E-02
  3.97573E-02  4.96748E-02  6.06130E-02  6.97728E-02  7.41380E-02  7.24386E-02
  2.34364E-02  3.13094E-02  4.22627E-02  5.51727E-02  6.81133E-02  7.78770E-02
  8.15872E-02  7.86081E-02  6.91744E-02  5.62453E-02  2.70662E-02  4.28113E-02
  6.45101E-02  8.80083E-02  1.07603E-01  1.14014E-01  1.02132E-01  8.12902E-02
  5.98847E-02  4.16162E-02  3.34047E-02  5.75639E-02  9.03122E-02  1.17877E-01
  1.34363E-01  1.41418E-01  1.14260E-01  7.78244E-02  4.92648E-02  3.03349E-02
  4.26525E-02  7.37089E-02  1.14491E-01  1.35298E-01  1.17409E-01  1.34464E-01
  1.08405E-01  6.85474E-02  3.97563E-02  2.28243E-02  5.41733E-02  8.66494E-02
  1.26285E-01  1.50670E-01  1.35151E-01  1.18614E-01  8.91893E-02  5.59273E-02
  3.24167E-02  1.88491E-02  6.55073E-02  9.10976E-02  1.15280E-01  1.26546E-01
  1.15297E-01  9.14929E-02  6.56815E-02  4.30096E-02  2.71671E-02  1.77980E-02
  7.29721E-02  8.57102E-02  9.07697E-02  8.65866E-02  7.41611E-02  5.83377E-02
  4.35652E-02  3.18110E-02  2.37340E-02  1.92442E-02  7.40985E-02  7.23555E-02
  6.47325E-02  5.37311E-02  4.26438E-02  3.36781E-02  2.74017E-02  2.36541E-02
  2.24046E-02  2.36278E-02  6.91903E-02  5.62212E-02  4.31763E-02  3.20252E-02
  2.39071E-02  1.92143E-02  1.76901E-02  1.90241E-02  2.35502E-02  3.15501E-02
  1.24706E-02  1.37838E-02  1.81166E-02  2.63343E-02  3.99643E-02  6.05084E-02
  8.68309E-02  1.09838E-01  1.19013E-01  1.13021E-01  1.38090E-02  1.90004E-02
  2.79407E-02  4.14534E-02  5.98400E-02  8.16101E-02  1.03078E-01  1.15353E-01
  1.08768E-01  8.89697E-02  1.84573E-02  2.84536E-02  4.35292E-02  6.33638E-02
  8.54627E-02  1.02409E-01  1.08266E-01  1.02410E-01  8.54171E-02  6.32947E-02
  2.76288E-02  4.35869E-02  6.54444E-02  8.89413E-02  1.08516E-01  1.14783E-01
  1.02434E-01  8.11489E-02  5.95794E-02  4.13325E-02  4.30594E-02  6.51575E-02
  9.18687E-02  1.12802E-01  1.18435E-01  1.08968E-01  8.59094E-02  5.98777E-02
  3.96307E-02  2.61989E-02  6.58616E-02  9.09443E-02  1.14096E-01  1.24468E-01
  1.13258E-01  8.96963E-02  6.40558E-02  4.17831E-02  2.63500E-02  1.73221E-02
  9.32737E-02  1.14804E-01  1.22320E-01  1.14108E-01  9.23226E-02  6.61408E-02
  4.41412E-02  2.82971E-02  1.82466E-02  1.29472E-02  1.14091E-01  1.25013E-01
  1.14049E-01  9.04085E-02  6.51743E-02  4.39147E-02  2.88105E-02  1.92397E-02
  1.38832E-02  1.18897E-02  1.18981E-01  1.12999E-01  9.17649E-02  6.48402E-02
  4.26839E-02  2.76327E-02  1.85856E-02  1.39083E-02  1.24771E-02  1.38627E-02
  1.08702E-01  8.89412E-02  6.53417E-02  4.34349E-02  2.74707E-02  1.78216E-02
  1.30154E-02  1.18606E-02  1.38904E-02  1.91716E-02  7.88411E-03  9.18881E-03
  1.36997E-02  2.30017E-02  4.01366E-02  6.92484E-02  1.09273E-01  1.33986E-01
  1.16529E-01  1.35229E-01  9.20286E-03  1.22553E-02  1.87998E-02  3.04523E-02
  4.94997E-02  7.82557E-02  1.14822E-01  1.41554E-01  1.34186E-01  1.17778E-01
  1.39620E-02  1.92096E-02  2.81610E-02  4.16318E-02  5.98813E-02  8.12848E-02
  1.02126E-01  1.13920E-01  1.07441E-01  8.78821E-02  2.41016E-02  3.21650E-02
  4.32146E-02  5.61003E-02  6.88683E-02  7.81651E-02  8.11206E-02  7.74945E-02
  6.78724E-02  5.50797E-02  4.30617E-02  5.40091E-02  6.47640E-02  7.20773E-02
  7.35232E-02  6.90594E-02  5.99773E-02  4.92366E-02  3.95291E-02  3.20946E-02
  7.49135E-02  8.70767E-02  9.07928E-02  8.52679E-02  7.22664E-02  5.64559E-02
  4.19085E-02  3.04979E-02  2.28388E-02  1.87999E-02  1.16129E-01  1.27119E-01
  1.15260E-01  9.05844E-02  6.48391E-02  4.34851E-02  2.84133E-02  1.89264E-02
  1.37062E-02  1.18909E-02  1.34417E-01  1.50585E-01  1.26112E-01  8.61919E-02
  5.36858E-02  3.21916E-02  1.93318E-02  1.23467E-02  9.22193E-03  9.04708E-03
  1.16720E-01  1.35036E-01  1.14251E-01  7.34022E-02  4.23815E-02  2.39134E-02
  1.39622E-02  9.23458E-03  7.88604E-03  9.24013E-03  1.34265E-01  1.17752E-01
  9.01474E-02  5.74322E-02  3.33243E-02  1.91526E-02  1.18648E-02  8.98118E-03
  9.25617E-03  1.23648E-02  6.61611E-03  7.96728E-03  1.25409E-02  2.21907E-02
  4.05470E-02  7.30268E-02  1.17651E-01  1.18310E-01  2.59549E-02  1.12210E-01
  7.87119E-03  9.20657E-03  1.37006E-02  2.29210E-02  3.98188E-02  6.83598E-02
  1.07555E-01  1.33791E-01  1.21005E-01  1.34995E-01  1.25543E-02  1.39376E-02
  1.82566E-02  2.63552E-02  3.96688E-02  5.94846E-02  8.46488E-02  1.06796E-01
  1.15877E-01  1.09769E-01  2.28512E-02  2.41010E-02  2.74168E-02  3.26027E-02
  3.99076E-02  4.92393E-02  5.92834E-02  6.75810E-02  7.14862E-02  6.97563E-02
  4.28957E-02  4.32170E-02  4.30049E-02  4.19480E-02  4.06784E-02  3.99515E-02
  3.95984E-02  3.94437E-02  3.97995E-02  4.08490E-02  7.82383E-02  7.55466E-02
  6.63947E-02  5.39205E-02  4.19848E-02  3.27018E-02  2.64122E-02  2.28291E-02
  2.19272E-02  2.36913E-02  1.23850E-01  1.17663E-01  9.49395E-02  6.61480E-02
  4.29024E-02  2.74611E-02  1.83285E-02  1.37157E-02  1.24825E-02  1.42101E-02
  1.08283E-01  1.35176E-01  1.16862E-01  7.46531E-02  4.27746E-02  2.39842E-02
  1.39466E-02  9.22813E-03  7.96748E-03  9.48776E-03  2.61581E-02  1.12164E-01
  1.22109E-01  7.65563E-02  4.20653E-02  2.25579E-02  1.24878E-02  7.86950E-03
  6.61580E-03  7.99667E-03  1.20942E-01  1.34961E-01  1.12322E-01  7.20830E-02
  4.16586E-02  2.35514E-02  1.38092E-02  9.19601E-03  7.90229E-03  9.26858E-03
  7.98143E-03  9.50229E-03  1.42964E-02  2.39745E-02  4.15169E-02  7.09032E-02
  1.10854E-01  1.34863E-01  1.14388E-01  1.35320E-01  9.19627E-03  9.03579E-03
  1.19090E-02  1.88884E-02  3.22847E-02  5.52164E-02  8.74313E-02  1.16624E-01
  1.34688E-01  1.46364E-01  1.38748E-02  1.19176E-02  1.29590E-02  1.73244E-02
  2.61553E-02  4.10541E-02  6.23405E-02  8.68556E-02  1.09117E-01  1.19045E-01
  2.39368E-02  1.94829E-02  1.79433E-02  1.89236E-02  2.28172E-02  3.01214E-02
  4.08988E-02  5.45887E-02  6.94637E-02  8.16610E-02  4.28639E-02  3.44446E-02
  2.82090E-02  2.40248E-02  2.21394E-02  2.28174E-02  2.60636E-02  3.19342E-02
  4.07662E-02  5.22747E-02  7.48717E-02  6.02049E-02  4.54543E-02  3.29527E-02
  2.40188E-02  1.89419E-02  1.73137E-02  1.87663E-02  2.36845E-02  3.24948E-02
  1.16707E-01  9.48237E-02  6.91899E-02  4.52693E-02  2.80920E-02  1.79218E-02
  1.29727E-02  1.18925E-02  1.42215E-02  2.01069E-02  1.35554E-01  1.21660E-01
  9.42135E-02  5.94947E-02  3.40426E-02  1.93396E-02  1.18955E-02  9.03987E-03
  9.49492E-03  1.29699E-02  1.14358E-01  1.35671E-01  1.14888E-01  7.33087E-02
  4.20466E-02  2.36222E-02  1.37926E-02  9.18705E-03  7.98075E-03  9.51370E-03
  1.34276E-01  1.46333E-01  1.21551E-01  8.32399E-02  5.20204E-02  3.13294E-02
  1.89454E-02  1.22175E-02  9.20929E-03  9.06148E-03
 END_DATAGRID_3D
 BEGIN_DATAGRID_3D_RHO:spin_2
    10    10    10
  0.0000000E+00  0.0000000E+00  0.0000000E+00
  2.0000000E+00  0.0000000E+00  0.0000000E+00
  0.0000000E+00  2.0000000E+00  0.0000000E+00
  0.0000000E+00  0.0000000E+00  2.0000000E+00
  2.48466E-02  1.11728E-01  1.22107E-01  7.65460E-02  4.20489E-02  2.25470E-02
  1.24828E-02  7.86830E-03  6.61635E-03  7.99737E-03  1.20713E-01  1.34949E-01
  1.12338E-01  7.19903E-02  4.15299E-02  2.34418E-02  1.37306E-02  9.14426E-03
  7.87192E-03  9.25580E-03  1.15836E-01  1.09754E-01  8.88341E-02  6.27086E-02
  4.13205E-02  2.68620E-02  1.82351E-02  1.38296E-02  1.25559E-02  1.40092E-02
  7.14404E-02  6.96349E-02  6.22902E-02  5.17839E-02  4.13008E-02  3.29409E-02
  2.71925E-02  2.38471E-02  2.28544E-02  2.41952E-02  3.97600E-02  4.06978E-02
  4.15784E-02  4.17807E-02  4.16516E-02  4.19044E-02  4.23302E-02  4.26182E-02
  4.29013E-02  4.33160E-02  2.19023E-02  2.35647E-02  2.76213E-02  3.38235E-02
  4.23789E-02  5.31622E-02  6.47720E-02  7.42026E-02  7.82471E-02  7.56010E-02
  1.24698E-02  1.41205E-02  1.89759E-02  2.79411E-02  4.25599E-02  6.43117E-02
  9.18478E-02  1.15202E-01  1.23855E-01  1.17665E-01  7.96261E-03  9.43030E-03
  1.42139E-02  2.39466E-02  4.17217E-02  7.17356E-02  1.12595E-01  1.34419E-01
  1.08233E-01  1.35445E-01  6.61499E-03  7.96430E-03  1.25346E-02  2.21792E-02
  4.05272E-02  7.29961E-02  1.17625E-01  1.18452E-01  2.61182E-02  1.12188E-01
  7.90276E-03  9.25604E-03  1.37691E-02  2.30055E-02  3.98985E-02  6.83836E-02
  1.07497E-01  1.33859E-01  1.20949E-01  1.34588E-01  1.13958E-01  1.35615E-01
  1.14914E-01  7.32231E-02  4.19220E-02  2.35152E-02  1.37159E-02  9.13686E-03
  7.95172E-03  9.50220E-03  1.34652E-01  1.46689E-01  1.21629E-01  8.30501E-02
  5.17474E-02  3.10950E-02  1.87785E-02  1.21105E-02  9.14841E-03  9.03616E-03
  1.09100E-01  1.19085E-01  1.08615E-01  8.62501E-02  6.23486E-02  4.22367E-02
  2.79574E-02  1.88955E-02  1.38063E-02  1.19186E-02  6.93405E-02  8.14347E-02
  8.64555E-02  8.27832E-02  7.12867E-02  5.65102E-02  4.26615E-02  3.15693E-02
  2.38486E-02  1.94849E-02  4.06139E-02  5.19665E-02  6.39369E-02  7.28232E-02
  7.56193E-02  7.21418E-02  6.36555E-02  5.29897E-02  4.27749E-02  3.44482E-02
  2.35572E-02  3.22301E-02  4.44986E-02  5.90737E-02  7.36807E-02  8.46759E-02
  8.88206E-02  8.54880E-02  7.48325E-02  6.02104E-02  1.41313E-02  1.99185E-02
  2.98840E-02  4.49213E-02  6.52333E-02  8.89943E-02  1.12177E-01  1.24953E-01
  1.16724E-01  9.48301E-02  9.43701E-03  1.28506E-02  2.00321E-02  3.26900E-02
  5.31609E-02  8.37684E-02  1.22317E-01  1.48691E-01  1.35312E-01  1.21665E-01
  7.94801E-03  9.44715E-03  1.42157E-02  2.38680E-02  4.14016E-02  7.08273E-02
  1.10845E-01  1.34709E-01  1.14358E-01  1.35679E-01  9.19642E-03  9.03426E-03
  1.19049E-02  1.88807E-02  3.22720E-02  5.51977E-02  8.74091E-02  1.16604E-01
  1.34662E-01  1.46340E-01  1.20745E-01  1.14328E-01  9.19047E-02  6.39818E-02
  4.15450E-02  2.67011E-02  1.79807E-02  1.36325E-02  1.25541E-02  1.43520E-02
  1.11099E-01  1.21070E-01  1.09749E-01  8.64198E-02  6.20358E-02  4.18242E-02
  2.75665E-02  1.85802E-02  1.36240E-02  1.19152E-02  8.80444E-02  1.08319E-01
  1.15774E-01  1.08425E-01  8.81603E-02  6.35417E-02  4.27251E-02  2.76708E-02
  1.80391E-02  1.29056E-02  6.19929E-02  8.64357E-02  1.09877E-01  1.21256E-01
  1.11270E-01  8.87601E-02  6.40158E-02  4.23006E-02  2.69892E-02  1.78139E-02
  4.15552E-02  6.40520E-02  9.20455E-02  1.14508E-01  1.20950E-01  1.12305E-01
  8.96503E-02  6.32782E-02  4.22852E-02  2.79798E-02  2.76927E-02  4.46362E-02
  6.83264E-02  9.38670E-02  1.15560E-01  1.23544E-01  1.11176E-01  8.86800E-02
  6.53049E-02  4.51013E-02  1.90633E-02  3.00073E-02  4.67253E-02  6.88112E-02
  9.35617E-02  1.12635E-01  1.19153E-01  1.12626E-01  9.34928E-02  6.87198E-02
  1.42798E-02  2.01273E-02  3.01120E-02  4.51159E-02  6.52912E-02  8.86515E-02
  1.11134E-01  1.23390E-01  1.15337E-01  9.36980E-02  1.25463E-02  1.42707E-02
  1.91192E-02  2.79717E-02  4.22655E-02  6.32449E-02  8.95541E-02  1.12083E-01
  1.20755E-01  1.14309E-01  1.36901E-02  1.19101E-02  1.31696E-02  1.78064E-02
  2.69741E-02  4.22627E-02  6.39196E-02  8.86070E-02  1.11092E-01  1.21000E-01
  7.54012E-02  7.26718E-02  6.38686E-02  5.19698E-02  4.06697E-02  3.19852E-02
  2.62002E-02  2.29984E-02  2.23458E-02  2.42361E-02  7.11462E-02  8.26777E-02
  8.64430E-02  8.15186E-02  6.94654E-02  5.46791E-02  4.10208E-02  3.02425E-02
  2.29274E-02  1.90186E-02  6.22988E-02  8.62535E-02  1.08725E-01  1.19259E-01
  1.09265E-01  8.69786E-02  6.24107E-02  4.10743E-02  2.61594E-02  1.73258E-02
  5.17716E-02  8.31617E-02  1.21818E-01  1.46633E-01  1.34490E-01  1.16725E-01
  8.74043E-02  5.50789E-02  3.21567E-02  1.87969E-02  4.19982E-02  7.33789E-02
  1.15094E-01  1.35366E-01  1.13766E-01  1.34937E-01  1.10641E-01  7.05549E-02
  4.12226E-02  2.37682E-02  3.41278E-02  5.96374E-02  9.43911E-02  1.21768E-01
  1.35624E-01  1.48721E-01  1.21773E-01  8.33380E-02  5.29250E-02  3.25696E-02
  2.82455E-02  4.54177E-02  6.92890E-02  9.48189E-02  1.16500E-01  1.24373E-01
  1.11492E-01  8.84973E-02  6.49456E-02  4.47798E-02  2.41990E-02  3.30780E-02
  4.54739E-02  6.00547E-02  7.45009E-02  8.49982E-02  8.82956E-02  8.42353E-02
  7.33886E-02  5.89397E-02  2.23311E-02  2.41274E-02  2.82038E-02  3.43010E-02
  4.25522E-02  5.27125E-02  6.33463E-02  7.18498E-02  7.54194E-02  7.27638E-02
  2.30082E-02  1.90088E-02  1.79373E-02  1.93840E-02  2.37272E-02  3.14306E-02
  4.25154E-02  5.63898E-02  7.12472E-02  8.28755E-02  4.15245E-02  4.17080E-02
  4.15703E-02  4.07545E-02  3.98713E-02  3.96723E-02  3.99358E-02  4.03403E-02
  4.10577E-02  4.22525E-02  4.12328E-02  5.17641E-02  6.23370E-02  6.97620E-02
  7.16334E-02  6.78219E-02  5.95481E-02  4.94824E-02  4.01074E-02  3.27372E-02
  4.13227E-02  6.27640E-02  8.89553E-02  1.09921E-01  1.16033E-01  1.06957E-01
  8.46999E-02  5.94904E-02  3.96726E-02  2.63556E-02  4.16023E-02  7.21374E-02
  1.12512E-01  1.34771E-01  1.20557E-01  1.33955E-01  1.07309E-01  6.80657E-02
  3.96276E-02  2.28151E-02  4.21804E-02  7.67711E-02  1.22313E-01  1.11525E-01
  2.57557E-02  1.19110E-01  1.17072E-01  7.24285E-02  4.01788E-02  2.19896E-02
  4.30439E-02  7.49600E-02  1.17102E-01  1.35507E-01  1.09257E-01  1.35096E-01
  1.11755E-01  7.10405E-02  4.13441E-02  2.37701E-02  4.32631E-02  6.64482E-02
  9.50215E-02  1.17452E-01  1.23316E-01  1.14361E-01  9.09028E-02  6.36557E-02
  4.22083E-02  2.77925E-02  4.23702E-02  5.41653E-02  6.63883E-02  7.52212E-02
  7.76010E-02  7.34485E-02  6.40919E-02  5.26856E-02  4.21191E-02  3.37445E-02
  4.10324E-02  4.21326E-02  4.29890E-02  4.29973E-02  4.24991E-02  4.21997E-02
  4.19599E-02  4.16424E-02  4.15460E-02  4.18374E-02  4.01816E-02  3.27209E-02
  2.74034E-02  2.39811E-02  2.26396E-02  2.36525E-02  2.70382E-02  3.28679E-02
  4.13675E-02  5.20446E-02  2.23907E-02  2.35173E-02  2.68350E-02  3.21467E-02
  3.97573E-02  4.96748E-02  6.06130E-02  6.97728E-02  7.41380E-02  7.24386E-02
  2.34364E-02  3.13094E-02  4.22627E-02  5.51727E-02  6.81133E-02  7.78770E-02
  8.15872E-02  7.86081E-02  6.91744E-02  5.62453E-02  2.70662E-02  4.28113E-02
  6.45101E-02  8.80083E-02  1.07603E-01  1.14014E-01  1.02132E-01  8.12902E-02
  5.98847E-02  4.16162E-02  3.34047E-02  5.75639E-02  9.03122E-02  1.17877E-01
  1.34363E-01  1.41418E-01  1.14260E-01  7.78244E-02  4.92648E-02  3.03349E-02
  4.26525E-02  7.37089E-02  1.14491E-01  1.35298E-01  1.17409E-01  1.34464E-01
  1.08405E-01  6.85474E-02  3.97563E-02  2.28243E-02  5.41733E-02  8.66494E-02
  1.26285E-01  1.50670E-01  1.35151E-01  1.18614E-01  8.91893E-02  5.59273E-02
  3.24167E-02  1.88491E-02  6.55073E-02  9.10976E-02  1.15280E-01  1.26546E-01
  1.15297E-01  9.14929E-02  6.56815E-02  4.30096E-02  2.71671E-02  1.77980E-02
  7.29721E-02  8.57102E-02  9.07697E-02  8.65866E-02  7.41611E-02  5.83377E-02
  4.35652E-02  3.18110E-02  2.37340E-02  1.92442E-02  7.40985E-02  7.23555E-02
  6.47325E-02  5.37311E-02  4.26438E-02  3.36781E-02  2.74017E-02  2.36541E-02
  2.24046E-02  2.36278E-02  6.91903E-02  5.62212E-02  4.31763E-02  3.20252E-02
  2.39071E-02  1.92143E-02  1.76901E-02  1.90241E-02  2.35502E-02  3.15501E-02
  1.24706E-02  1.37838E-02  1.81166E-02  2.63343E-02  3.99643E-02  6.05084E-02
  8.68309E-02  1.09838E-01  1.19013E-01  1.13021E-01  1.38090E-02  1.90004E-02
  2.79407E-02  4.14534E-02  5.98400E-02  8.16101E-02  1.03078E-01  1.15353E-01
  1.08768E-01  8.89697E-02  1.84573E-02  2.84536E-02  4.35292E-02  6.33638E-02
  8.54627E-02  1.02409E-01  1.08266E-01  1.02410E-01  8.54171E-02  6.32947E-02
  2.76288E-02  4.35869E-02  6.54444E-02  8.89413E-02  1.08516E-01  1.14783E-01
  1.02434E-01  8.11489E-02  5.95794E-02  4.13325E-02  4.30594E-02  6.51575E-02
  9.18687E-02  1.12802E-01  1.18435E-01  1.08968E-01  8.59094E-02  5.98777E-02
  3.96307E-02  2.61989E-02  6.58616E-02  9.09443E-02  1.14096E-01  1.24468E-01
  1.13258E-01  8.96963E-02  6.40558E-02  4.17831E-02  2.63500E-02  1.73221E-02
  9.32737E-02  1.14804E-01  1.22320E-01  1.14108E-01  9.23226E-02  6.61408E-02
  4.41412E-02  2.82971E-02  1.82466E-02  1.29472E-02  1.14091E-01  1.25013E-01
  1.14049E-01  9.04085E-02  6.51743E-02  4.39147E-02  2.88105E-02  1.92397E-02
  1.38832E-02  1.18897E-02  1.18981E-01  1.12999E-01  9.17649E-02  6.48402E-02
  4.26839E-02  2.76327E-02  1.85856E-02  1.39083E-02  1.24771E-02  1.38627E-02
  1.08702E-01  8.89412E-02  6.53417E-02  4.34349E-02  2.74707E-02  1.78216E-02
  1.30154E-02  1.18606E-02  1.38904E-02  1.91716E-02  7.88411E-03  9.18881E-03
  1.36997E-02  2.30017E-02  4.01366E-02  6.92484E-02  1.09273E-01  1.33986E-01
  1.16529E-01  1.35229E-01  9.20286E-03  1.22553E-02  1.87998E-02  3.04523E-02
  4.94997E-02  7.82557E-02  1.14822E-01  1.41554E-01  1.34186E-01  1.17778E-01
  1.39620E-02  1.92096E-02  2.81610E-02  4.16318E-02  5.98813E-02  8.12848E-02
  1.02126E-01  1.13920E-01  1.07441E-01  8.78821E-02  2.41016E-02  3.21650E-02
  4.32146E-02  5.61003E-02  6.88683E-02  7.81651E-02  8.11206E-02  7.74945E-02
  6.78724E-02  5.50797E-02  4.30617E-02  5.40091E-02  6.47640E-02  7.20773E-02
  7.35232E-02  6.90594E-02  5.99773E-02  4.92366E-02  3.95291E-02  3.20946E-02
  7.49135E-02  8.70767E-02  9.07928E-02  8.52679E-02  7.22664E-02  5.64559E-02
  4.19085E-02  3.04979E-02  2.28388E-02  1.87999E-02  1.16129E-01  1.27119E-01
  1.15260E-01  9.05844E-02  6.48391E-02  4.34851E-02  2.84133E-02  1.89264E-02
  1.37062E-02  1.18909E-02  1.34417E-01  1.50585E-01  1.26112E-01  8.61919E-02
  5.36858E-02  3.21916E-02  1.93318E-02  1.23467E-02  9.22193E-03  9.04708E-03
  1.16720E-01  1.35036E-01  1.14251E-01  7.34022E-02  4.23815E-02  2.39134E-02
  1.39622E-02  9.23458E-03  7.88604E-03  9.24013E-03  1.34265E-01  1.17752E-01
  9.01474E-02  5.74322E-02  3.33243E-02  1.91526E-02  1.18648E-02  8.98118E-03
  9.25617E-03  1.23648E-02  6.61611E-03  7.96728E-03  1.25409E-02  2.21907E-02
  4.05470E-02  7.30268E-02  1.17651E-01  1.18310E-01  2.59549E-02  1.12210E-01
  7.87119E-03  9.20657E-03  1.37006E-02  2.29210E-02  3.98188E-02  6.83598E-02
  1.07555E-01  1.33791E-01  1.21005E-01  1.34995E-01  1.25543E-02  1.39376E-02
  1.82566E-02  2.63552E-02  3.96688E-02  5.94846E-02  8.46488E-02  1.06796E-01
  1.15877E-01  1.09769E-01  2.28512E-02  2.41010E-02  2.74168E-02  3.26027E-02
  3.99076E-02  4.92393E-02  5.92834E-02  6.75810E-02  7.14862E-02  6.97563E-02
  4.28957E-02  4.32170E-02  4.30049E-02  4.19480E-02  4.06784E-02  3.99515E-02
  3.95984E-02  3.94437E-02  3.97995E-02  4.08490E-02  7.82383E-02  7.55466E-02
  6.63947E-02  5.39205E-02  4.19848E-02  3.27018E-02  2.64122E-02  2.28291E-02
  2.19272E-02  2.36913E-02  1.23850E-01  1.17663E-01  9.49395E-02  6.61480E-02
  4.29024E-02  2.74611E-02  1.83285E-02  1.37157E-02  1.24825E-02  1.42101E-02
  1.08283E-01  1.35176E-01  1.16862E-01  7.46531E-02  4.27746E-02  2.39842E-02
  1.39466E-02  9.22813E-03  7.96748E-03  9.48776E-03  2.61581E-02  1.12164E-01
  1.22109E-01  7.65563E-02  4.20653E-02  2.25579E-02  1.24878E-02  7.86950E-03
  6.61580E-03  7.99667E-03  1.20942E-01  1.34961E-01  1.12322E-01  7.20830E-02
  4.16586E-02  2.35514E-02  1.38092E-02  9.19601E-03  7.90229E-03  9.26858E-03
  7.98143E-03  9.50229E-03  1.42964E-02  2.39745E-02  4.15169E-02  7.09032E-02
  1.10854E-01  1.34863E-01  1.14388E-01  1.35320E-01  9.19627E-03  9.03579E-03
  1.19090E-02  1.88884E-02  3.22847E-02  5.52164E-02  8.74313E-02  1.16624E-01
  1.34688E-01  1.46364E-01  1.38748E-02  1.19176E-02  1.29590E-02  1.73244E-02
  2.61553E-02  4.10541E-02  6.23405E-02  8.68556E-02  1.09117E-01  1.19045E-01
  2.39368E-02  1.94829E-02  1.79433E-02  1.89236E-02  2.28172E-02  3.01214E-02
  4.08988E-02  5.45887E-02  6.94637E-02  8.16610E-02  4.28639E-02  3.44446E-02
  2.82090E-02  2.40248E-02  2.21394E-02  2.28174E-02  2.60636E-02  3.19342E-02
  4.07662E-02  5.22747E-02  7.48717E-02  6.02049E-02  4.54543E-02  3.29527E-02
  2.40188E-02  1.89419E-02  1.73137E-02  1.87663E-02  2.36845E-02  3.24948E-02
  1.16707E-01  9.48237E-02  6.91899E-02  4.52693E-02  2.80920E-02  1.79218E-02
  1.29727E-02  1.18925E-02  1.42215E-02  2.01069E-02  1.35554E-01  1.21660E-01
  9.42135E-02  5.94947E-02  3.40426E-02  1.93396E-02  1.18955E-02  9.03987E-03
  9.49492E-03  1.29699E-02  1.14358E-01  1.35671E-01  1.14888E-01  7.33087E-02
  4.20466E-02  2.36222E-02  1.37926E-02  9.18705E-03  7.98075E-03  9.51370E-03
  1.34276E-01  1.46333E-01  1.21551E-01  8.32399E-02  5.20204E-02  3.13294E-02
  1.89454E-02  1.22175E-02  9.20929E-03  9.06148E-03
 END_DATAGRID_3D
END_BLOCK_DATAGRID_3D
BEGIN_BLOCK_DATAGRID_3D
 DATA_from:diamond.LDOS
 BEGIN_DATAGRID_3D_LDOS:spin_1
    10    10    10
  0.0000000E+00  0.0000000E+00  0.0000000E+00
  2.0000000E+00  0.0000000E+00  0.0000000E+00
  0.0000000E+00  2.0000000E+00  0.0000000E+00
  0.0000000E+00  0.0000000E+00  2.0000000E+00
  4.13874E-03  2.64619E-02  2.69258E-02  1.49771E-02  8.77384E-03  6.94257E-03
  6.65444E-03  6.67192E-03  6.79185E-03  6.95413E-03  3.42561E-02  3.17391E-02
  2.23395E-02  1.23123E-02  7.70717E-03  6.58531E-03  6.49464E-03  6.52153E-03
  6.61389E-03  6.72987E-03  2.80245E-02  2.31089E-02  1.47794E-02  8.97952E-03
  7.02951E-03  6.82538E-03  6.75150E-03  6.60954E-03  6.67134E-03  6.95589E-03
  1.33265E-02  1.19869E-02  9.11807E-03  7.45827E-03  7.27078E-03  7.35151E-03
  7.13998E-03  6.99369E-03  7.19825E-03  7.67664E-03  7.04460E-03  7.48598E-03
  7.74581E-03  8.04591E-03  8.02031E-03  7.71156E-03  7.75782E-03  8.47926E-03
  9.33087E-03  9.65638E-03  6.24051E-03  7.15347E-03  8.31194E-03  8.91114E-03
  8.52704E-03  8.35471E-03  1.00666E-02  1.32959E-02  1.56692E-02  1.51568E-02
  6.82666E-03  7.56983E-03  8.42277E-03  8.67259E-03  8.58116E-03  1.03154E-02
  1.59328E-02  2.29938E-02  2.73252E-02  2.59637E-02  7.02263E-03  7.42158E-03
  7.67783E-03  7.59378E-03  8.36874E-03  1.31581E-02  2.39153E-02  3.09971E-02
  2.51667E-02  3.40719E-02  6.78718E-03  6.94916E-03  6.80849E-03  6.47594E-03
  7.64513E-03  1.41489E-02  2.84676E-02  3.31104E-02  4.48600E-03  2.65402E-02
  6.61176E-03  6.72967E-03  6.54544E-03  6.03551E-03  6.54232E-03  1.15161E-02
  2.42693E-02  3.78243E-02  3.42299E-02  3.15808E-02  2.65256E-02  3.79475E-02
  2.67578E-02  1.42907E-02  8.43907E-03  6.68460E-03  6.36066E-03  6.47868E-03
  6.92206E-03  7.55318E-03  2.95820E-02  2.15308E-02  1.45167E-02  8.95772E-03
  7.44403E-03  7.64156E-03  7.45844E-03  6.89724E-03  6.52090E-03  6.39772E-03
  2.19797E-02  1.37792E-02  7.71172E-03  6.43505E-03  8.46331E-03  9.97378E-03
  9.24135E-03  7.64882E-03  6.55822E-03  6.10482E-03  1.15607E-02  8.71883E-03
  7.11425E-03  8.63147E-03  1.13928E-02  1.21029E-02  1.02486E-02  8.13032E-03
  7.15475E-03  6.97567E-03  7.40702E-03  8.53484E-03  1.09664E-02  1.37222E-02
  1.39771E-02  1.15154E-02  8.90928E-03  8.16186E-03  9.16539E-03  1.00486E-02
  7.23491E-03  1.01827E-02  1.42039E-02  1.65225E-02  1.38949E-02  8.89373E-03
  6.86332E-03  9.52840E-03  1.49680E-02  1.77746E-02  7.69458E-03  1.04673E-02
  1.35690E-02  1.45356E-02  1.15240E-02  7.63175E-03  7.76665E-03  1.39496E-02
  2.66059E-02  3.26952E-02  7.50064E-03  9.18578E-03  1.06591E-02  1.07093E-02
  9.33734E-03  9.38410E-03  1.32266E-02  1.86348E-02  3.58319E-02  4.86929E-02
  6.90993E-03  7.53214E-03  7.86831E-03  7.68799E-03  8.13342E-03  1.22162E-02
  2.15942E-02  2.71696E-02  2.65456E-02  3.76864E-02  6.52132E-03  6.39126E-03