 # crystal structure from diamond.XV
 CRYSTAL
 # Cell vectors in Angstroms:
 PRIMVEC
   1.7755000   1.7755000   0.0000000
   0.0000000   1.7755000   1.7755000
   1.7755000   0.0000000   1.7755000
 # Atom coordinates in Angstroms:
 PRIMCOORD
        2        1
        6          0.00414818         -0.00577162          0.00345676
        6          0.88360182          0.89352162          0.88429324
