Siesta Version  : 5.0.0-alpha-123-gfb8fd7d02
Architecture    : ----
Compiler version: GNU-11.4.0
Compiler flags  : -fallow-argument-mismatch;-O3 -march=native
PP flags        : ----
Libraries       : ----
Parallelisations: none
GEMM3M support
NetCDF support
NetCDF-4 support
Lua support

Runtime information:
* Directory : /home/fnpedron/Siesta/siesta-dev/Tests/08.GeometryOptimization/work/cg
* Running in serial mode.
>> Start of run:  28-SEP-2023  15:37:08

                           *********************** 
                           *  WELCOME TO SIESTA  * 
                           *********************** 

reinit: Reading from standard input
reinit: Dumping input in INPUT_TMP.22144
************************** Dump of input data file ****************************
%include ../../basejob.fdf
SystemLabel      cg
MD.TypeOfRun  cg
************************** End of input data file *****************************

reinit: -----------------------------------------------------------------------
reinit: System Name: MgCO3
reinit: -----------------------------------------------------------------------
reinit: System Label: cg
reinit: -----------------------------------------------------------------------

initatom: Reading input for the pseudopotentials and atomic orbitals ----------
Species number:   1 Atomic number:   12 Label: Mg
Species number:   2 Atomic number:    6 Label: C
Species number:   3 Atomic number:    8 Label: O


---- Processing specs for species: Mg
Ground state valence configuration:   3s02
Reading pseudopotential information in formatted form from:
  /home/fnpedron/Siesta/siesta-dev/Tests/Pseudos/Mg.psf

---- Processing specs for species: C
Ground state valence configuration:   2s02  2p02
Reading pseudopotential information in formatted form from:
  /home/fnpedron/Siesta/siesta-dev/Tests/Pseudos/C.psf

---- Processing specs for species: O
Ground state valence configuration:   2s02  2p04
Reading pseudopotential information in formatted form from:
  /home/fnpedron/Siesta/siesta-dev/Tests/Pseudos/O.psf

---- Pseudopotential check for Mg

Pseudized shells:
3s( 2.00) rc: 2.59
3p( 0.00) rc: 2.59
3d( 0.00) rc: 2.59
4f( 0.00) rc: 2.59
Valence configuration for ps generation: (assumed as above)

---- Pseudopotential check for C 

Pseudized shells:
2s( 2.00) rc: 1.49
2p( 2.00) rc: 1.52
3d( 0.00) rc: 1.58
Valence configuration for ps generation: (assumed as above)

---- Pseudopotential check for O 

Pseudized shells:
2s( 2.00) rc: 1.14
2p( 4.00) rc: 1.14
3d( 0.00) rc: 1.14
4f( 0.00) rc: 1.14
Valence configuration for ps generation: (assumed as above)
For Mg, standard SIESTA heuristics set lmxkb to 1
 (one more than the basis l, including polarization orbitals).
Use PS.lmax or PS.KBprojectors blocks to override.
For C, standard SIESTA heuristics set lmxkb to 2
 (one more than the basis l, including polarization orbitals).
Use PS.lmax or PS.KBprojectors blocks to override.
For O, standard SIESTA heuristics set lmxkb to 2
 (one more than the basis l, including polarization orbitals).
Use PS.lmax or PS.KBprojectors blocks to override.

<basis_specs>
===============================================================================
Mg                   Z=  12    Mass=  24.305        Charge= 0.17977+309
Lmxo=0 Lmxkb= 1    BasisType=split      Semic=F
L=0  Nsemic=0  Cnfigmx=3
          i=1  nzeta=1  polorb=0  (3s)
            splnorm:   0.15000    
               vcte:    40.000    
               rinn:  -0.90000    
               qcoe:    0.0000    
               qyuk:    0.0000    
               qwid:   0.10000E-01
                rcs:    0.0000    
            lambdas:    1.0000    
-------------------------------------------------------------------------------
L=0  Nkbl=1  erefs: 0.17977+309
L=1  Nkbl=1  erefs: 0.17977+309
===============================================================================
</basis_specs>

Using PAO.SplitTailNorm
atom: Called for Mg                    (Z =  12)
Maximum radius (at nrval) set to   50.00000 8518

read_vps: Pseudopotential generation method:
read_vps: ATM3      Troullier-Martins                       
Valence charge in pseudo generation:    2.00000

xc_check: Exchange-correlation functional:
xc_check: Ceperley-Alder
V l=0 = -2*Zval/r beyond r=  3.6077
V l=1 = -2*Zval/r beyond r=  3.6077
All V_l potentials equal beyond r=  2.5675
This should be close to max(r_c) in ps generation
All pots = -2*Zval/r beyond r=  3.6077
Using large-core scheme (fit) for Vlocal

atom: Estimated core radius    3.60767

atom: Including non-local core corrections could be a good idea
Fit of Vlocal with continuous 2nd derivative
Fitting vlocal at       2.5753
Choosing vlocal chloc cutoff:***  3.897234
qtot up to nchloc:    2.00021543
atom: Maximum radius for chlocal:    3.89723
atom: Maximum radius for r*vlocal+2*Zval:    3.89723

KBgen: Kleinman-Bylander projectors: 
GHOST: No ghost state for L =  0
   l= 0   rc=  2.567525   el= -0.351328   Ekb=  2.696148   kbcos=  0.292957
GHOST: No ghost state for L =  1
   l= 1   rc=  2.590828   el= -0.101748   Ekb=  1.049266   kbcos=  0.260113

KBgen: Total number of Kleinman-Bylander projectors:   4
atom: -------------------------------------------------------------------------

atom: SANKEY-TYPE ORBITALS:

SPLIT: Orbitals with angular momentum L= 0

SPLIT: Basis orbitals for state 3s

SPLIT: PAO cut-off radius determined from an
SPLIT: energy shift=  0.010000 Ry
Split based on tail norm

   izeta = 1
                 lambda =    1.000000
                     rc =    7.238756
                 energy =   -0.339633
                kinetic =    0.272466
    potential(screened) =   -0.612099
       potential(ionic) =   -1.372639
atom: Total number of Sankey-type orbitals:  1

atm_pop: Valence configuration (for local Pseudopot. screening):
 3s( 2.00)                                                            
Vna: chval, zval:    2.00000   2.00000

Vna:  Cut-off radius for the neutral-atom potential:   7.238756

atom: _________________________________________________________________________

<basis_specs>
===============================================================================
C                    Z=   6    Mass=  12.011        Charge= 0.17977+309
Lmxo=1 Lmxkb= 2    BasisType=split      Semic=F
L=0  Nsemic=0  Cnfigmx=2
          i=1  nzeta=1  polorb=0  (2s)
            splnorm:   0.15000    
               vcte:    40.000    
               rinn:  -0.90000    
               qcoe:    0.0000    
               qyuk:    0.0000    
               qwid:   0.10000E-01
                rcs:    0.0000    
            lambdas:    1.0000    
L=1  Nsemic=0  Cnfigmx=2
          i=1  nzeta=1  polorb=0  (2p)
            splnorm:   0.15000    
               vcte:    40.000    
               rinn:  -0.90000    
               qcoe:    0.0000    
               qyuk:    0.0000    
               qwid:   0.10000E-01
                rcs:    0.0000    
            lambdas:    1.0000    
-------------------------------------------------------------------------------
L=0  Nkbl=1  erefs: 0.17977+309
L=1  Nkbl=1  erefs: 0.17977+309
L=2  Nkbl=1  erefs: 0.17977+309
===============================================================================
</basis_specs>

Using PAO.SplitTailNorm
atom: Called for C                     (Z =   6)
Maximum radius (at nrval) set to   50.00000 8518

read_vps: Pseudopotential generation method:
read_vps: ATM3      Troullier-Martins                       
Valence charge in pseudo generation:    4.00000

xc_check: Exchange-correlation functional:
xc_check: Ceperley-Alder
V l=0 = -2*Zval/r beyond r=  1.4801
V l=1 = -2*Zval/r beyond r=  1.5087
V l=2 = -2*Zval/r beyond r=  1.5628
All V_l potentials equal beyond r=  1.5612
This should be close to max(r_c) in ps generation
All pots = -2*Zval/r beyond r=  1.5628
Using small-core scheme (local charge) for Vlocal

VLOCAL_FROM_CHLOCAL: 99.0% of the norm of Vloc inside     17.810 Ry
VLOCAL_FROM_CHLOCAL: 99.9% of the norm of Vloc inside     40.589 Ry
atom: Maximum radius for chlocal:    1.86354
atom: Maximum radius for r*vlocal+2*Zval:    1.70915

KBgen: Kleinman-Bylander projectors: 
GHOST: No ghost state for L =  0
   l= 0   rc=  1.745634   el= -1.001947   Ekb=  5.181804   kbcos=  0.300616
GHOST: No ghost state for L =  1
   l= 1   rc=  1.745634   el= -0.398598   Ekb= -4.328614   kbcos= -0.367151
GHOST: No ghost state for L =  2
   l= 2   rc=  1.934160   el=  0.013259   Ekb= -1.016084   kbcos= -0.010830

KBgen: Total number of Kleinman-Bylander projectors:   9
atom: -------------------------------------------------------------------------

atom: SANKEY-TYPE ORBITALS:

SPLIT: Orbitals with angular momentum L= 0

SPLIT: Basis orbitals for state 2s

SPLIT: PAO cut-off radius determined from an
SPLIT: energy shift=  0.010000 Ry
Split based on tail norm

   izeta = 1
                 lambda =    1.000000
                     rc =    4.511437
                 energy =   -0.990638
                kinetic =    0.865864
    potential(screened) =   -1.856502
       potential(ionic) =   -5.451831

SPLIT: Orbitals with angular momentum L= 1

SPLIT: Basis orbitals for state 2p

SPLIT: PAO cut-off radius determined from an
SPLIT: energy shift=  0.010000 Ry
Split based on tail norm

   izeta = 1
                 lambda =    1.000000
                     rc =    5.413980
                 energy =   -0.387425
                kinetic =    2.474707
    potential(screened) =   -2.862132
       potential(ionic) =   -6.338849
atom: Total number of Sankey-type orbitals:  4

atm_pop: Valence configuration (for local Pseudopot. screening):
 2s( 2.00)                                                            
 2p( 2.00)                                                            
Vna: chval, zval:    4.00000   4.00000

Vna:  Cut-off radius for the neutral-atom potential:   5.413980

atom: _________________________________________________________________________

<basis_specs>
===============================================================================
O                    Z=   8    Mass=  15.999        Charge= 0.17977+309
Lmxo=1 Lmxkb= 2    BasisType=split      Semic=F
L=0  Nsemic=0  Cnfigmx=2
          i=1  nzeta=1  polorb=0  (2s)
            splnorm:   0.15000    
               vcte:    40.000    
               rinn:  -0.90000    
               qcoe:    0.0000    
               qyuk:    0.0000    
               qwid:   0.10000E-01
                rcs:    0.0000    
            lambdas:    1.0000    
L=1  Nsemic=0  Cnfigmx=2
          i=1  nzeta=1  polorb=0  (2p)
            splnorm:   0.15000    
               vcte:    40.000    
               rinn:  -0.90000    
               qcoe:    0.0000    
               qyuk:    0.0000    
               qwid:   0.10000E-01
                rcs:    0.0000    
            lambdas:    1.0000    
-------------------------------------------------------------------------------
L=0  Nkbl=1  erefs: 0.17977+309
L=1  Nkbl=1  erefs: 0.17977+309
L=2  Nkbl=1  erefs: 0.17977+309
===============================================================================
</basis_specs>

Using PAO.SplitTailNorm
atom: Called for O                     (Z =   8)
Maximum radius (at nrval) set to   50.00000 8518

read_vps: Pseudopotential generation method:
read_vps: ATM3      Troullier-Martins                       
Valence charge in pseudo generation:    6.00000

xc_check: Exchange-correlation functional:
xc_check: Ceperley-Alder
V l=0 = -2*Zval/r beyond r=  1.1366
V l=1 = -2*Zval/r beyond r=  1.1332
V l=2 = -2*Zval/r beyond r=  1.1298
All V_l potentials equal beyond r=  1.1355
This should be close to max(r_c) in ps generation
All pots = -2*Zval/r beyond r=  1.1366
Using small-core scheme (local charge) for Vlocal

VLOCAL_FROM_CHLOCAL: 99.0% of the norm of Vloc inside     33.667 Ry
VLOCAL_FROM_CHLOCAL: 99.9% of the norm of Vloc inside     76.727 Ry
atom: Maximum radius for chlocal:    1.37241
atom: Maximum radius for r*vlocal+2*Zval:    1.25469

KBgen: Kleinman-Bylander projectors: 
GHOST: No ghost state for L =  0
   l= 0   rc=  1.293209   el= -1.742414   Ekb=  9.076872   kbcos=  0.325320
GHOST: No ghost state for L =  1
   l= 1   rc=  1.284119   el= -0.676589   Ekb= -8.194485   kbcos= -0.396010
GHOST: No ghost state for L =  2
   l= 2   rc=  1.433152   el=  0.013307   Ekb= -2.071665   kbcos= -0.003690

KBgen: Total number of Kleinman-Bylander projectors:   9
atom: -------------------------------------------------------------------------

atom: SANKEY-TYPE ORBITALS:

SPLIT: Orbitals with angular momentum L= 0

SPLIT: Basis orbitals for state 2s

SPLIT: PAO cut-off radius determined from an
SPLIT: energy shift=  0.010000 Ry
Split based on tail norm

   izeta = 1
                 lambda =    1.000000
                     rc =    3.560943
                 energy =   -1.731321
                kinetic =    1.587329
    potential(screened) =   -3.318651
       potential(ionic) =  -11.260325

SPLIT: Orbitals with angular momentum L= 1

SPLIT: Basis orbitals for state 2p

SPLIT: PAO cut-off radius determined from an
SPLIT: energy shift=  0.010000 Ry
Split based on tail norm

   izeta = 1
                 lambda =    1.000000
                     rc =    4.290924
                 energy =   -0.665565
                kinetic =    4.934810
    potential(screened) =   -5.600376
       potential(ionic) =  -13.346429
atom: Total number of Sankey-type orbitals:  4

atm_pop: Valence configuration (for local Pseudopot. screening):
 2s( 2.00)                                                            
 2p( 4.00)                                                            
Vna: chval, zval:    6.00000   6.00000

Vna:  Cut-off radius for the neutral-atom potential:   4.290924

atom: _________________________________________________________________________

prinput: Basis input 

PAO.BasisType split     

%block ChemicalSpeciesLabel
    1   12 Mg                      # Species index, atomic number, species label
    2    6 C                       # Species index, atomic number, species label
    3    8 O                       # Species index, atomic number, species label
%endblock ChemicalSpeciesLabel

%block PAO.Basis                 # Define Basis set
# WARNING: This information might be incomplete!
Mg                    1                    # Species label, number of l-shells
 n=3   0   1                         # n, l, Nzeta 
   7.239   
   1.000   
C                     2                    # Species label, number of l-shells
 n=2   0   1                         # n, l, Nzeta 
   4.511   
   1.000   
 n=2   1   1                         # n, l, Nzeta 
   5.414   
   1.000   
O                     2                    # Species label, number of l-shells
 n=2   0   1                         # n, l, Nzeta 
   3.561   
   1.000   
 n=2   1   1                         # n, l, Nzeta 
   4.291   
   1.000   
%endblock PAO.Basis

prinput: ----------------------------------------------------------------------

Dumping basis to NetCDF file Mg.ion.nc
Dumping basis to NetCDF file C.ion.nc
Dumping basis to NetCDF file O.ion.nc
coor:   Atomic-coordinates input format  =     Fractional

siesta: Atomic coordinates (Bohr) and species
siesta:      0.00000   0.00000   0.00000  1        1
siesta:     12.51929   5.59740   3.66414  1        2
siesta:      6.25965   2.79870   1.83207  2        3
siesta:     -6.25965  -2.79870  -1.83207  2        4
siesta:      7.25136   0.58061   1.83207  3        5
siesta:      6.25965   4.12944  -0.20079  3        6
siesta:      5.26793   3.68605   3.86493  3        7
siesta:     -7.25136  -0.58061  -1.83207  3        8
siesta:     -6.25965  -4.12944   0.20079  3        9
siesta:     -5.26793  -3.68605  -3.86493  3       10

siesta: System type = bulk      

initatomlists: Number of atoms, orbitals, and projectors:     10    34    80

siesta: ******************** Simulation parameters ****************************
siesta:
siesta: The following are some of the parameters of the simulation.
siesta: A complete list of the parameters used, including default values,
siesta: can be found in file out.fdf
siesta:
redata: Spin configuration                          = none
redata: Number of spin components                   = 1
redata: Time-Reversal Symmetry                      = T
redata: Spin spiral                                 = F
redata: Long output                                 =   F
redata: Number of Atomic Species                    =        3
redata: Charge density info will appear in .RHO file
redata: Write Mulliken Pop.                         = NO
redata: Matel table size (NRTAB)                    =     1024
redata: Mesh Cutoff                                 =    50.0000 Ry
redata: Net charge of the system                    =     0.0000 |e|
redata: Min. number of SCF Iter                     =        0
redata: Max. number of SCF Iter                     =     1000
redata: SCF convergence failure will abort job
redata: SCF mix quantity                            = Hamiltonian
redata: Mix DM or H after convergence               =   F
redata: Recompute H after scf cycle                 =   F
redata: Mix DM in first SCF step                    =   T
redata: Write Pulay info on disk                    =   F
redata: New DM Occupancy tolerance                  = 0.000000000001
redata: No kicks to SCF
redata: DM Mixing Weight for Kicks                  =     0.5000
redata: Require Harris convergence for SCF          =   F
redata: Harris energy tolerance for SCF             =     0.000100 eV
redata: Require DM convergence for SCF              =   T
redata: DM tolerance for SCF                        =     0.000100
redata: Require EDM convergence for SCF             =   F
redata: EDM tolerance for SCF                       =     0.001000 eV
redata: Require H convergence for SCF               =   T
redata: Hamiltonian tolerance for SCF               =     0.001000 eV
redata: Require (free) Energy convergence for SCF   =   F
redata: (free) Energy tolerance for SCF             =     0.000100 eV
redata: Using DFT-D3 dispersion                     =   F
redata: Using Saved Data (generic)                  =   F
redata: Use continuation files for DM               =   F
redata: Neglect nonoverlap interactions             =   F
redata: Method of Calculation                       = Diagonalization
redata: Electronic Temperature                      =   299.9863 K
redata: Fix the spin of the system                  =   F
redata: Max. number of TDED Iter                    =        1
redata: Number of TDED substeps                     =        3
redata: Dynamics option                             = CG coord. optimization
redata: Variable cell                               =   F
redata: Use continuation files for CG               =   F
redata: Max atomic displ per move                   =     0.1000 Ang
redata: Maximum number of optimization moves        =        5
redata: Force tolerance                             =     0.0400 eV/Ang
mix.SCF: Pulay mixing                            = Pulay
mix.SCF:    Variant                              = stable
mix.SCF:    History steps                        = 2
mix.SCF:    Linear mixing weight                 =     0.250000
mix.SCF:    Mixing weight                        =     0.250000
mix.SCF:    SVD condition                        = 0.1000E-07
redata: Save all siesta data in one NC              =   F
redata: ***********************************************************************

%block SCF.Mixers
  Pulay
%endblock SCF.Mixers

%block SCF.Mixer.Pulay
  # Mixing method
  method pulay
  variant stable

  # Mixing options
  weight 0.2500
  weight.linear 0.2500
  history 2
%endblock SCF.Mixer.Pulay

DM_history_depth set to one: no extrapolation allowed by default for geometry relaxation
Size of DM history Fstack: 1
Total number of electrons:    48.000000
Total ionic charge:    48.000000
 Kpoints in:           12 . Kpoints trimmed:           12

siesta: k-grid: Number of k-points = 12
siesta: k-points from cutoff
siesta: k-cutoff (effective) =     5.678 Ang
siesta: k-point supercell and displacements
siesta: k-grid:    -3     0     3      0.500
siesta: k-grid:     0    -3     3      0.000
siesta: k-grid:     0     0     2      0.000

diag: Algorithm                                     = D&C
diag: Used triangular part                          = Lower
diag: Absolute tolerance                            =  0.100E-15
diag: Orthogonalization factor                      =  0.100E-05
diag: Memory factor                                 =  1.0000

superc: Internal auxiliary supercell:     5 x     5 x     5  =     125
superc: Number of atoms, orbitals, and projectors:   1250   4250  10000


ts: **************************************************************
ts: Save H and S matrices                           =    F
ts: Save DM and EDM matrices                        =    F
ts: Only save the overlap matrix S                  =    F
ts: **************************************************************

************************ Begin: TS CHECKS AND WARNINGS ************************
************************ End: TS CHECKS AND WARNINGS **************************


                     ====================================
                        Begin CG opt. move =      0
                     ====================================

outcoor: Atomic coordinates (fractional):                   
    0.00000000    0.00000000    0.00000000   1       1  Mg
    0.50000000    0.50000000    0.50000000   1       2  Mg
    0.25000000    0.25000000    0.25000000   2       3  C
   -0.25000000   -0.25000000   -0.25000000   2       4  C
    0.52740000   -0.02740000    0.25000000   3       5  O
    0.25000000    0.52740000   -0.02740000   3       6  O
   -0.02740000    0.25000000    0.52740000   3       7  O
   -0.52740000    0.02740000   -0.25000000   3       8  O
   -0.25000000   -0.52740000    0.02740000   3       9  O
    0.02740000   -0.25000000   -0.52740000   3      10  O

superc: Internal auxiliary supercell:     5 x     5 x     5  =     125
superc: Number of atoms, orbitals, and projectors:   1250   4250  10000

outcell: Unit cell vectors (Ang):
        5.677830    0.000000    0.000000
        3.786009    4.231299    0.000000
        3.786009    1.692731    3.877957

outcell: Cell vector modules (Ang)   :    5.677830    5.677830    5.677830
outcell: Cell angles (23,13,12) (deg):     48.1790     48.1790     48.1790
outcell: Cell volume (Ang**3)        :     93.1663
<dSpData1D:S at geom step 0
  <sparsity:sparsity for geom step 0
    nrows_g=34 nrows=34 sparsity=10.6834 nnzs=12350, refcount: 7>
  <dData1D:(new from dSpData1D) n=12350, refcount: 1>
refcount: 1>
new_DM -- step:     1
Initializing Density Matrix...
DM filled with atomic data:
<dSpData2D:DM initialized from atoms
  <sparsity:sparsity for geom step 0
    nrows_g=34 nrows=34 sparsity=10.6834 nnzs=12350, refcount: 8>
  <dData2D:DM n=12350 m=1, refcount: 1>
refcount: 1>
No. of atoms with KB's overlaping orbs in proc 0. Max # of overlaps:     129      93

InitMesh: MESH = 24 x 24 x 24 = 13824
InitMesh: Mesh cutoff (required, used) =    50.000    63.482 Ry
New grid distribution [1]: sub = 2

stepf: Fermi-Dirac step function

siesta: Program's energy decomposition (eV):
siesta: Ebs     =      -589.780073
siesta: Eions   =      5249.502762
siesta: Ena     =      1131.157040
siesta: Ekin    =      2359.424687
siesta: Enl     =      -400.615198
siesta: Eso     =         0.000000
siesta: Edftu   =         0.000000
siesta: DEna    =       -97.751840
siesta: DUscf   =        22.539196
siesta: DUext   =         0.000000
siesta: Ex      =      -640.394102
siesta: Ec      =       -77.786808
siesta: Exc     =      -718.180909
siesta: EbV     =         0.000000
siesta: eta*DQ  =         0.000000
siesta: Emadel  =         0.000000
siesta: Emeta   =         0.000000
siesta: Emolmec =         0.000000
siesta: Ekinion =         0.000000
siesta: Eharris =     -2902.075069
siesta: Etot    =     -2952.929787
siesta: FreeEng =     -2952.929787

        iscf     Eharris(eV)        E_KS(eV)     FreeEng(eV)     dDmax    Ef(eV) dHmax(eV)
   scf:    1    -2902.075069    -2952.929787    -2952.929787  1.801898 -3.702524  4.572038
timer: Routine,Calls,Time,% = IterSCF        1       0.019   5.78
   scf:    2    -2964.871605    -2959.585913    -2959.585913  0.187089 -3.854108  2.422891
   scf:    3    -2961.972495    -2961.352073    -2961.352073  0.188526 -3.834771  0.640200
   scf:    4    -2961.415956    -2961.385483    -2961.385483  0.009823 -3.733716  0.387105
   scf:    5    -2961.423991    -2961.407999    -2961.407999  0.020606 -3.555753  0.058666
   scf:    6    -2961.409162    -2961.408647    -2961.408647  0.002389 -3.550476  0.026282
   scf:    7    -2961.408991    -2961.408849    -2961.408849  0.002059 -3.550032  0.011932
   scf:    8    -2961.408855    -2961.408852    -2961.408852  0.000147 -3.552923  0.007826
   scf:    9    -2961.408854    -2961.408853    -2961.408853  0.000202 -3.559110  0.001972
   scf:   10    -2961.408854    -2961.408854    -2961.408854  0.000048 -3.559874  0.000948

SCF Convergence by DM+H criterion
max |DM_out - DM_in|         :     0.0000482637
max |H_out - H_in|      (eV) :     0.0009477601
SCF cycle converged after 10 iterations

Using DM_out to compute the final energy and forces
No. of atoms with KB's overlaping orbs in proc 0. Max # of overlaps:     129      93

siesta: E_KS(eV) =            -2961.4089

siesta: E_KS - E_eggbox =     -2961.4089

siesta: Atomic forces (eV/Ang):
     1   -0.000000   -0.000000   -0.000000
     2   -0.000000    0.000000    0.000000
     3    0.001422   -0.000199   -0.003353
     4   -0.001422    0.000199    0.003353
     5    3.569916   -7.986374   -0.001363
     6    0.000090    4.790229   -7.318174
     7   -3.571479    3.197462    7.322958
     8   -3.569916    7.986374    0.001363
     9   -0.000090   -4.790229    7.318174
    10    3.571479   -3.197462   -7.322958
----------------------------------------
   Tot    0.000000    0.000000   -0.000000
----------------------------------------
   Max    7.986374
   Res    3.912658    sqrt( Sum f_i^2 / 3N )
----------------------------------------
   Max    7.986374    constrained

Stress tensor Voigt[x,y,z,yz,xz,xy] (kbar):      129.20     -233.45     -285.13       59.22      132.55      202.68
(Free)E + p*V (eV/cell)    -2953.8616
Target enthalpy (eV/cell)    -2903.2590

                     ====================================
                        Begin CG opt. move =      1
                     ====================================

outcoor: Atomic coordinates (fractional):                   
    0.00000000   -0.00000000   -0.00000000   1       1  Mg
    0.50000000    0.50000000    0.50000000   1       2  Mg
    0.25000293    0.25000139    0.24999597   2       3  C
   -0.25000293   -0.25000139   -0.24999597   2       4  C
    0.53620731   -0.03620666    0.24999836   3       5  O
    0.25000034    0.53620538   -0.03620577   3       6  O
   -0.03621147    0.25000109    0.53621152   3       7  O
   -0.53620731    0.03620666   -0.24999836   3       8  O
   -0.25000034   -0.53620538    0.03620577   3       9  O
    0.03621147   -0.25000109   -0.53621152   3      10  O

superc: Internal auxiliary supercell:     5 x     5 x     5  =     125
superc: Number of atoms, orbitals, and projectors:   1250   4250  10000

outcell: Unit cell vectors (Ang):
        5.677830    0.000000    0.000000
        3.786009    4.231299    0.000000
        3.786009    1.692731    3.877957

outcell: Cell vector modules (Ang)   :    5.677830    5.677830    5.677830
outcell: Cell angles (23,13,12) (deg):     48.1790     48.1790     48.1790
outcell: Cell volume (Ang**3)        :     93.1663
<dSpData1D:S at geom step 1
  <sparsity:sparsity for geom step 1
    nrows_g=34 nrows=34 sparsity=10.6834 nnzs=12350, refcount: 7>
  <dData1D:(new from dSpData1D) n=12350, refcount: 1>
refcount: 1>
new_DM -- step:     2
Re-using DM from previous geometries...
Number of DMs in history: 1
 DM extrapolation coefficients: 
1   1.00000
New DM after history re-use:
<dSpData2D:SpM extrapolated using coords
  <sparsity:sparsity for geom step 1
    nrows_g=34 nrows=34 sparsity=10.6834 nnzs=12350, refcount: 9>
  <dData2D:(temp array for extrapolation) n=12350 m=1, refcount: 1>
refcount: 1>
No. of atoms with KB's overlaping orbs in proc 0. Max # of overlaps:     129      93

InitMesh: MESH = 24 x 24 x 24 = 13824
InitMesh: Mesh cutoff (required, used) =    50.000    63.482 Ry
New grid distribution [1]: sub = 2

        iscf     Eharris(eV)        E_KS(eV)     FreeEng(eV)     dDmax    Ef(eV) dHmax(eV)
   scf:    1    -2965.732578    -2963.056634    -2963.056634  0.098431 -4.360976  0.729155
   scf:    2    -2962.551840    -2962.961951    -2962.961951  0.097768 -4.091136  0.923392
   scf:    3    -2963.228617    -2963.147981    -2963.147981  0.056418 -4.234517  0.038792
   scf:    4    -2963.148355    -2963.148120    -2963.148120  0.000670 -4.226574  0.025308
   scf:    5    -2963.148455    -2963.148314    -2963.148314  0.001321 -4.210493  0.002458
   scf:    6    -2963.148317    -2963.148316    -2963.148316  0.000085 -4.210484  0.001597
   scf:    7    -2963.148316    -2963.148316    -2963.148316  0.000075 -4.210716  0.000622

SCF Convergence by DM+H criterion
max |DM_out - DM_in|         :     0.0000753137
max |H_out - H_in|      (eV) :     0.0006216207
SCF cycle converged after 7 iterations

Using DM_out to compute the final energy and forces
No. of atoms with KB's overlaping orbs in proc 0. Max # of overlaps:     129      93

siesta: E_KS(eV) =            -2963.1483

siesta: Atomic forces (eV/Ang):
     1    0.000000   -0.000000   -0.000000
     2   -0.000000    0.000000    0.000000
     3    0.000510    0.000133   -0.000461
     4   -0.000510   -0.000133    0.000461
     5    2.210916   -4.946197   -0.001149
     6   -0.000025    2.967069   -4.532707
     7   -2.211474    1.980387    4.534571
     8   -2.210916    4.946197    0.001149
     9    0.000025   -2.967069    4.532707
    10    2.211474   -1.980387   -4.534571
----------------------------------------
   Tot   -0.000000   -0.000000   -0.000000
----------------------------------------
   Max    4.946197
   Res    2.423177    sqrt( Sum f_i^2 / 3N )
----------------------------------------
   Max    4.946197    constrained

Stress tensor Voigt[x,y,z,yz,xz,xy] (kbar):      152.72      -90.51     -125.14       39.74       88.84      135.90
(Free)E + p*V (eV/cell)    -2961.9285
Target enthalpy (eV/cell)    -2904.9985

                     ====================================
                        Begin CG opt. move =      2
                     ====================================

outcoor: Atomic coordinates (fractional):                   
    0.00000000   -0.00000000   -0.00000000   1       1  Mg
    0.50000000    0.50000000    0.50000000   1       2  Mg
    0.25000762    0.25000362    0.24998951   2       3  C
   -0.25000762   -0.25000362   -0.24998951   2       4  C
    0.55029900   -0.05029731    0.24999574   3       5  O
    0.25000087    0.55029398   -0.05029500   3       6  O
   -0.05030982    0.25000282    0.55030996   3       7  O
   -0.55029900    0.05029731   -0.24999574   3       8  O
   -0.25000087   -0.55029398    0.05029500   3       9  O
    0.05030982   -0.25000282   -0.55030996   3      10  O

superc: Internal auxiliary supercell:     5 x     5 x     5  =     125
superc: Number of atoms, orbitals, and projectors:   1250   4250  10000

outcell: Unit cell vectors (Ang):
        5.677830    0.000000    0.000000
        3.786009    4.231299    0.000000
        3.786009    1.692731    3.877957

outcell: Cell vector modules (Ang)   :    5.677830    5.677830    5.677830
outcell: Cell angles (23,13,12) (deg):     48.1790     48.1790     48.1790
outcell: Cell volume (Ang**3)        :     93.1663
<dSpData1D:S at geom step 2
  <sparsity:sparsity for geom step 2
    nrows_g=34 nrows=34 sparsity=10.3201 nnzs=11930, refcount: 7>
  <dData1D:(new from dSpData1D) n=11930, refcount: 1>
refcount: 1>
new_DM -- step:     3
Re-using DM from previous geometries...
Number of DMs in history: 1
 DM extrapolation coefficients: 
1   1.00000
New DM after history re-use:
<dSpData2D:SpM extrapolated using coords
  <sparsity:sparsity for geom step 2
    nrows_g=34 nrows=34 sparsity=10.3201 nnzs=11930, refcount: 9>
  <dData2D:(temp array for extrapolation) n=11930 m=1, refcount: 1>
refcount: 1>
No. of atoms with KB's overlaping orbs in proc 0. Max # of overlaps:     135      87

InitMesh: MESH = 24 x 24 x 24 = 13824
InitMesh: Mesh cutoff (required, used) =    50.000    63.482 Ry
New grid distribution [1]: sub = 2

        iscf     Eharris(eV)        E_KS(eV)     FreeEng(eV)     dDmax    Ef(eV) dHmax(eV)
   scf:    1    -2967.006776    -2963.894799    -2963.894799  0.174523 -5.060223  1.405755
   scf:    2    -2960.935199    -2963.223584    -2963.223584  0.208722 -4.766514  2.146266
   scf:    3    -2964.643790    -2964.247145    -2964.247145  0.128765 -4.941776  0.069918
   scf:    4    -2964.249053    -2964.248147    -2964.248147  0.001685 -4.929623  0.050534
   scf:    5    -2964.249336    -2964.248832    -2964.248832  0.002321 -4.906158  0.009508
   scf:    6    -2964.248865    -2964.248851    -2964.248851  0.000344 -4.904710  0.003232
   scf:    7    -2964.248855    -2964.248853    -2964.248853  0.000171 -4.904711  0.001781
   scf:    8    -2964.248854    -2964.248854    -2964.248854  0.000028 -4.905112  0.001173
   scf:    9    -2964.248854    -2964.248854    -2964.248854  0.000049 -4.905944  0.000357

SCF Convergence by DM+H criterion
max |DM_out - DM_in|         :     0.0000493542
max |H_out - H_in|      (eV) :     0.0003573941
SCF cycle converged after 9 iterations

Using DM_out to compute the final energy and forces
No. of atoms with KB's overlaping orbs in proc 0. Max # of overlaps:     135      87

siesta: E_KS(eV) =            -2964.2489

siesta: Atomic forces (eV/Ang):
     1    0.000000    0.000000    0.000000
     2    0.000000   -0.000000    0.000000
     3   -0.000241    0.000601    0.001964
     4    0.000241   -0.000601   -0.001964
     5    0.191100   -0.427169   -0.001161
     6   -0.000258    0.256176   -0.391103
     7   -0.190631    0.172187    0.391024
     8   -0.191100    0.427169    0.001161
     9    0.000258   -0.256176    0.391103
    10    0.190631   -0.172187   -0.391024
----------------------------------------
   Tot   -0.000000   -0.000000   -0.000000
----------------------------------------
   Max    0.427169
   Res    0.209201    sqrt( Sum f_i^2 / 3N )
----------------------------------------
   Max    0.427169    constrained

Stress tensor Voigt[x,y,z,yz,xz,xy] (kbar):      182.08       94.59       82.17       14.32       31.85       48.83
(Free)E + p*V (eV/cell)    -2971.2044
Target enthalpy (eV/cell)    -2906.0990

                     ====================================
                        Begin CG opt. move =      3
                     ====================================

outcoor: Atomic coordinates (fractional):                   
    0.00000000   -0.00000000   -0.00000000   1       1  Mg
    0.50000000    0.50000000    0.50000000   1       2  Mg
    0.25001512    0.25000719    0.24997918   2       3  C
   -0.25001512   -0.25000719   -0.24997918   2       4  C
    0.57284571   -0.07284235    0.24999154   3       5  O
    0.25000173    0.57283574   -0.07283776   3       6  O
   -0.07286718    0.25000560    0.57286747   3       7  O
   -0.57284571    0.07284235   -0.24999154   3       8  O
   -0.25000173   -0.57283574    0.07283776   3       9  O
    0.07286718   -0.25000560   -0.57286747   3      10  O

superc: Internal auxiliary supercell:     5 x     5 x     5  =     125
superc: Number of atoms, orbitals, and projectors:   1250   4250  10000

outcell: Unit cell vectors (Ang):
        5.677830    0.000000    0.000000
        3.786009    4.231299    0.000000
        3.786009    1.692731    3.877957

outcell: Cell vector modules (Ang)   :    5.677830    5.677830    5.677830
outcell: Cell angles (23,13,12) (deg):     48.1790     48.1790     48.1790
outcell: Cell volume (Ang**3)        :     93.1663
<dSpData1D:S at geom step 3
  <sparsity:sparsity for geom step 3
    nrows_g=34 nrows=34 sparsity=10.3408 nnzs=11954, refcount: 7>
  <dData1D:(new from dSpData1D) n=11954, refcount: 1>
refcount: 1>
new_DM -- step:     4
Re-using DM from previous geometries...
Number of DMs in history: 1
 DM extrapolation coefficients: 
1   1.00000
New DM after history re-use:
<dSpData2D:SpM extrapolated using coords
  <sparsity:sparsity for geom step 3
    nrows_g=34 nrows=34 sparsity=10.3408 nnzs=11954, refcount: 9>
  <dData2D:(temp array for extrapolation) n=11954 m=1, refcount: 1>
refcount: 1>
Note: For starting DM, Qtot, Tr[D*S] =         48.00000000         47.86163611
No. of atoms with KB's overlaping orbs in proc 0. Max # of overlaps:     135      87

InitMesh: MESH = 24 x 24 x 24 = 13824
InitMesh: Mesh cutoff (required, used) =    50.000    63.482 Ry
New grid distribution [1]: sub = 2

        iscf     Eharris(eV)        E_KS(eV)     FreeEng(eV)     dDmax    Ef(eV) dHmax(eV)
   scf:    1    -2963.446425    -2961.965646    -2961.965646  0.299512 -4.858541  2.738812
   scf:    2    -2942.423239    -2956.921003    -2956.921003  0.456819 -5.273097  5.385278
   scf:    3    -2965.608674    -2963.374377    -2963.374377  0.295028 -4.950260  0.151393
   scf:    4    -2963.386218    -2963.381603    -2963.381603  0.008744 -4.928716  0.106391
   scf:    5    -2963.385424    -2963.383610    -2963.383610  0.002038 -4.915753  0.063913
   scf:    6    -2963.385420    -2963.384650    -2963.384650  0.002882 -4.901180  0.005389
   scf:    7    -2963.384661    -2963.384657    -2963.384657  0.000229 -4.901783  0.002939
   scf:    8    -2963.384658    -2963.384658    -2963.384658  0.000066 -4.902342  0.001633
   scf:    9    -2963.384658    -2963.384658    -2963.384658  0.000039 -4.902885  0.000776

SCF Convergence by DM+H criterion
max |DM_out - DM_in|         :     0.0000393443
max |H_out - H_in|      (eV) :     0.0007763345
SCF cycle converged after 9 iterations

Using DM_out to compute the final energy and forces
No. of atoms with KB's overlaping orbs in proc 0. Max # of overlaps:     135      87

siesta: E_KS(eV) =            -2963.3847

siesta: Atomic forces (eV/Ang):
     1   -0.000000    0.000000    0.000000
     2    0.000000   -0.000000    0.000000
     3   -0.000468    0.001294    0.003028
     4    0.000468   -0.001294   -0.003028
     5   -1.090956    2.441729   -0.000705
     6   -0.000697   -1.464939    2.238925
     7    1.092326   -0.975552   -2.239036
     8    1.090956   -2.441729    0.000705
     9    0.000697    1.464939   -2.238925
    10   -1.092326    0.975552    2.239036
----------------------------------------
   Tot   -0.000000   -0.000000    0.000000
----------------------------------------
   Max    2.441729
   Res    1.196362    sqrt( Sum f_i^2 / 3N )
----------------------------------------
   Max    2.441729    constrained

Stress tensor Voigt[x,y,z,yz,xz,xy] (kbar):      198.67      274.86      285.78      -12.40      -28.02      -42.67
(Free)E + p*V (eV/cell)    -2978.1026
Target enthalpy (eV/cell)    -2905.2348

                     ====================================
                        Begin CG opt. move =      4
                     ====================================

outcoor: Atomic coordinates (fractional):                   
    0.00000000   -0.00000000   -0.00000000   1       1  Mg
    0.50000000    0.50000000    0.50000000   1       2  Mg
    0.25000873    0.25000416    0.24998797   2       3  C
   -0.25000873   -0.25000416   -0.24998797   2       4  C
    0.55365478   -0.05365285    0.24999511   3       5  O
    0.25000100    0.55364903   -0.05365019   3       6  O
   -0.05366719    0.25000324    0.55366735   3       7  O
   -0.55365478    0.05365285   -0.24999511   3       8  O
   -0.25000100   -0.55364903    0.05365019   3       9  O
    0.05366719   -0.25000324   -0.55366735   3      10  O

superc: Internal auxiliary supercell:     5 x     5 x     5  =     125
superc: Number of atoms, orbitals, and projectors:   1250   4250  10000

outcell: Unit cell vectors (Ang):
        5.677830    0.000000    0.000000
        3.786009    4.231299    0.000000
        3.786009    1.692731    3.877957

outcell: Cell vector modules (Ang)   :    5.677830    5.677830    5.677830
outcell: Cell angles (23,13,12) (deg):     48.1790     48.1790     48.1790
outcell: Cell volume (Ang**3)        :     93.1663
<dSpData1D:S at geom step 4
  <sparsity:sparsity for geom step 4
    nrows_g=34 nrows=34 sparsity=10.3201 nnzs=11930, refcount: 7>
  <dData1D:(new from dSpData1D) n=11930, refcount: 1>
refcount: 1>
new_DM -- step:     5
Re-using DM from previous geometries...
Number of DMs in history: 1
 DM extrapolation coefficients: 
1   1.00000
New DM after history re-use:
<dSpData2D:SpM extrapolated using coords
  <sparsity:sparsity for geom step 4
    nrows_g=34 nrows=34 sparsity=10.3201 nnzs=11930, refcount: 9>
  <dData2D:(temp array for extrapolation) n=11930 m=1, refcount: 1>
refcount: 1>
Note: For starting DM, Qtot, Tr[D*S] =         48.00000000         48.12207423
No. of atoms with KB's overlaping orbs in proc 0. Max # of overlaps:     135      87

InitMesh: MESH = 24 x 24 x 24 = 13824
InitMesh: Mesh cutoff (required, used) =    50.000    63.482 Ry
New grid distribution [1]: sub = 2

        iscf     Eharris(eV)        E_KS(eV)     FreeEng(eV)     dDmax    Ef(eV) dHmax(eV)
   scf:    1    -2957.716147    -2963.654319    -2963.654319  0.228746 -4.764257  1.868596
   scf:    2    -2958.070390    -2962.348425    -2962.348425  0.285936 -3.941543  2.956654
   scf:    3    -2964.937446    -2964.251053    -2964.251053  0.185795 -4.931906  0.127584
   scf:    4    -2964.255238    -2964.253187    -2964.253187  0.002241 -4.956255  0.082890
   scf:    5    -2964.256572    -2964.255043    -2964.255043  0.004043 -5.000215  0.007686
   scf:    6    -2964.255086    -2964.255068    -2964.255068  0.000482 -5.001375  0.002979
   scf:    7    -2964.255072    -2964.255071    -2964.255071  0.000181 -5.001265  0.001378
   scf:    8    -2964.255071    -2964.255071    -2964.255071  0.000037 -5.000963  0.001044
   scf:    9    -2964.255071    -2964.255071    -2964.255071  0.000050 -5.000326  0.000223

SCF Convergence by DM+H criterion
max |DM_out - DM_in|         :     0.0000498394
max |H_out - H_in|      (eV) :     0.0002230787
SCF cycle converged after 9 iterations

Using DM_out to compute the final energy and forces
No. of atoms with KB's overlaping orbs in proc 0. Max # of overlaps:     135      87

siesta: E_KS(eV) =            -2964.2551

siesta: Atomic forces (eV/Ang):
     1   -0.000000    0.000000    0.000000
     2    0.000000    0.000000    0.000000
     3   -0.000334    0.000714    0.002269
     4    0.000334   -0.000714   -0.002269
     5   -0.125444    0.281088   -0.001187
     6   -0.000321   -0.168807    0.258202
     7    0.125918   -0.110980   -0.257998
     8    0.125444   -0.281088    0.001187
     9    0.000321    0.168807   -0.258202
    10   -0.125918    0.110980    0.257998
----------------------------------------
   Tot   -0.000000   -0.000000   -0.000000
----------------------------------------
   Max    0.281088
   Res    0.137757    sqrt( Sum f_i^2 / 3N )
----------------------------------------
   Max    0.281088    constrained

Stress tensor Voigt[x,y,z,yz,xz,xy] (kbar):      187.35      130.11      121.99        9.38       20.79       31.93
(Free)E + p*V (eV/cell)    -2972.7731
Target enthalpy (eV/cell)    -2906.1052

cgvc: Finished line minimization    1.  Mean atomic displacement =    0.1611

                     ====================================
                        Begin CG opt. move =      5
                     ====================================

outcoor: Atomic coordinates (fractional):                   
   -0.00000000   -0.00000000    0.00000000   1       1  Mg
    0.50000000    0.50000000    0.50000000   1       2  Mg
    0.24618003    0.24945903    0.25552933   2       3  C
   -0.24618003   -0.24945902   -0.25552933   2       4  C
    0.57892063   -0.07600902    0.24680244   3       5  O
    0.24912087    0.57612886   -0.07564980   3       6  O
   -0.07912083    0.25395962    0.57664351   3       7  O
   -0.57892063    0.07600902   -0.24680244   3       8  O
   -0.24912087   -0.57612886    0.07564980   3       9  O
    0.07912083   -0.25395962   -0.57664351   3      10  O

superc: Internal auxiliary supercell:     5 x     5 x     5  =     125
superc: Number of atoms, orbitals, and projectors:   1250   4250  10000

outcell: Unit cell vectors (Ang):
        5.677830    0.000000    0.000000
        3.786009    4.231299    0.000000
        3.786009    1.692731    3.877957

outcell: Cell vector modules (Ang)   :    5.677830    5.677830    5.677830
outcell: Cell angles (23,13,12) (deg):     48.1790     48.1790     48.1790
outcell: Cell volume (Ang**3)        :     93.1663
<dSpData1D:S at geom step 5
  <sparsity:sparsity for geom step 5
    nrows_g=34 nrows=34 sparsity=10.1938 nnzs=11784, refcount: 7>
  <dData1D:(new from dSpData1D) n=11784, refcount: 1>
refcount: 1>
new_DM -- step:     6
Re-using DM from previous geometries...
Number of DMs in history: 1
 DM extrapolation coefficients: 
1   1.00000
New DM after history re-use:
<dSpData2D:SpM extrapolated using coords
  <sparsity:sparsity for geom step 5
    nrows_g=34 nrows=34 sparsity=10.1938 nnzs=11784, refcount: 9>
  <dData2D:(temp array for extrapolation) n=11784 m=1, refcount: 1>
refcount: 1>
Note: For starting DM, Qtot, Tr[D*S] =         48.00000000         47.83604283
No. of atoms with KB's overlaping orbs in proc 0. Max # of overlaps:     135      87

InitMesh: MESH = 24 x 24 x 24 = 13824
InitMesh: Mesh cutoff (required, used) =    50.000    63.482 Ry
New grid distribution [1]: sub = 2

        iscf     Eharris(eV)        E_KS(eV)     FreeEng(eV)     dDmax    Ef(eV) dHmax(eV)
   scf:    1    -2962.229754    -2961.364966    -2961.364966  0.309895 -4.701233  2.902615
   scf:    2    -2937.272513    -2955.070971    -2955.070971  0.492031 -5.238078  5.932338
   scf:    3    -2965.713094    -2962.983786    -2962.983786  0.318369 -4.815276  0.315399
   scf:    4    -2963.002464    -2962.996766    -2962.996766  0.011064 -4.789668  0.129563
   scf:    5    -2963.000543    -2962.998710    -2962.998710  0.001919 -4.780922  0.088943
   scf:    6    -2963.001716    -2963.000358    -2963.000358  0.003780 -4.764869  0.009569
   scf:    7    -2963.000395    -2963.000379    -2963.000379  0.000399 -4.763898  0.002749
   scf:    8    -2963.000380    -2963.000379    -2963.000379  0.000033 -4.764296  0.002265
   scf:    9    -2963.000380    -2963.000380    -2963.000380  0.000077 -4.765196  0.000432

SCF Convergence by DM+H criterion
max |DM_out - DM_in|         :     0.0000772689
max |H_out - H_in|      (eV) :     0.0004319141
SCF cycle converged after 9 iterations

Using DM_out to compute the final energy and forces
No. of atoms with KB's overlaping orbs in proc 0. Max # of overlaps:     135      87

siesta: E_KS(eV) =            -2963.0004

siesta: Atomic forces (eV/Ang):
     1    0.000000    0.000000   -0.000000
     2    0.000000   -0.000000    0.000000
     3    0.188838   -0.127410   -0.730521
     4   -0.188838    0.127410    0.730521
     5   -1.523006    3.014481    0.793294
     6    0.098894   -1.732817    2.708544
     7    1.197810   -1.828783   -2.233727
     8    1.523006   -3.014481   -0.793294
     9   -0.098894    1.732817   -2.708543
    10   -1.197810    1.828783    2.233727
----------------------------------------
   Tot    0.000000    0.000000    0.000000
----------------------------------------
   Max    3.014481
   Res    1.477360    sqrt( Sum f_i^2 / 3N )
----------------------------------------
   Max    3.014481    constrained

Stress tensor Voigt[x,y,z,yz,xz,xy] (kbar):      195.36      298.79      302.16      -14.37      -32.89      -55.13
(Free)E + p*V (eV/cell)    -2978.4356
Target enthalpy (eV/cell)    -2904.8505

outcoor: Final (unrelaxed) atomic coordinates (fractional): 
   -0.00000000   -0.00000000    0.00000000   1       1  Mg
    0.50000000    0.50000000    0.50000000   1       2  Mg
    0.24618003    0.24945903    0.25552933   2       3  C
   -0.24618003   -0.24945902   -0.25552933   2       4  C
    0.57892063   -0.07600902    0.24680244   3       5  O
    0.24912087    0.57612886   -0.07564980   3       6  O
   -0.07912083    0.25395962    0.57664351   3       7  O
   -0.57892063    0.07600902   -0.24680244   3       8  O
   -0.24912087   -0.57612886    0.07564980   3       9  O
    0.07912083   -0.25395962   -0.57664351   3      10  O

siesta: Program's energy decomposition (eV):
siesta: Ebs     =      -620.696231
siesta: Eions   =      5249.502762
siesta: Ena     =      1141.502253
siesta: Ekin    =      2201.860070
siesta: Enl     =      -337.674924
siesta: Eso     =         0.000000
siesta: Edftu   =         0.000000
siesta: DEna    =       -37.461968
siesta: DUscf   =         6.236029
siesta: DUext   =         0.000000
siesta: Ex      =      -611.469385
siesta: Ec      =       -76.489692
siesta: Exc     =      -687.959078
siesta: EbV     =         0.000000
siesta: eta*DQ  =         0.000000
siesta: Emadel  =         0.000000
siesta: Emeta   =         0.000000
siesta: Emolmec =         0.000000
siesta: Ekinion =         0.000000
siesta: Eharris =     -2963.000380
siesta: Etot    =     -2963.000380
siesta: FreeEng =     -2963.000380

siesta: Final energy (eV):
siesta:  Band Struct. =    -620.696231
siesta:       Kinetic =    2201.860070
siesta:       Hartree =     842.721214
siesta:         Edftu =       0.000000
siesta:       Eso     =       0.000000
siesta:    Ext. field =       0.000000
siesta:         Exch. =    -611.469385
siesta:         Corr. =     -76.489692
siesta:     Bulk bias =       0.000000
siesta:   Exch.-corr. =    -687.959078
siesta:  Ion-electron =   -3606.607259
siesta:       Ion-ion =   -1713.015327
siesta:       Ekinion =       0.000000
siesta: D3 dispersion =       0.000000
siesta:         Total =   -2963.000380
siesta:         Fermi =      -4.765196

siesta: Atomic forces (eV/Ang):
siesta:      1    0.000000    0.000000   -0.000000
siesta:      2    0.000000   -0.000000    0.000000
siesta:      3    0.188838   -0.127410   -0.730521
siesta:      4   -0.188838    0.127410    0.730521
siesta:      5   -1.523006    3.014481    0.793294
siesta:      6    0.098894   -1.732817    2.708544
siesta:      7    1.197810   -1.828783   -2.233727
siesta:      8    1.523006   -3.014481   -0.793294
siesta:      9   -0.098894    1.732817   -2.708543
siesta:     10   -1.197810    1.828783    2.233727
siesta: ----------------------------------------
siesta:    Tot    0.000000    0.000000    0.000000

siesta: Stress tensor (static) (eV/Ang**3):
siesta:     0.121934   -0.034407   -0.020530
siesta:    -0.034407    0.186492   -0.008971
siesta:    -0.020530   -0.008971    0.188595

siesta: Cell volume =         93.166340 Ang**3

siesta: Pressure (static):
siesta:                Solid            Molecule  Units
siesta:          -0.00180441         -0.00061850  Ry/Bohr**3
siesta:          -0.16567359         -0.05678813  eV/Ang**3
siesta:        -265.43835964        -90.98461248  kBar
(Free)E+ p_basis*V_orbitals  =       -2961.447145
(Free)Eharris+ p_basis*V_orbitals  =       -2961.447145

cite: Please see "cg.bib" for an exhaustive BiBTeX file.
cite: Please clearly indicate Siesta version in published work: 5.0.0-alpha-123-gfb8fd7d02
cite: This calculation has made use of the following articles
cite: which are encouraged to be cited in a published work.
        Primary SIESTA paper
          DOI: www.doi.org/10.1088/0953-8984/14/11/302


timer: Elapsed wall time (sec) =       2.159
timer: CPU execution times (sec):

Routine            Calls   Time/call    Tot.time        %
siesta                 1       2.156       2.156   100.00
Setup                  1       0.094       0.094     4.36
bands                  1       0.000       0.000     0.00
KSV_init               1       0.000       0.000     0.00
IterGeom               6       0.344       2.061    95.61
geom_init              6       0.128       0.770    35.74
state_init             6       0.049       0.295    13.67
hsparse                6       0.006       0.033     1.53
overlap                6       0.002       0.014     0.63
Setup_H0               6       0.071       0.424    19.65
naefs                 12       0.000       0.004     0.17
MolMec                12       0.000       0.000     0.00
kinefsm               12       0.001       0.018     0.83
nlefsm                12       0.021       0.255    11.81
DHSCF_Init             6       0.041       0.246    11.43
DHSCF1                 6       0.004       0.023     1.08
INITMESH               6       0.000       0.000     0.00
DHSCF2                 6       0.037       0.223    10.35
REMESH                 6       0.007       0.040     1.88
REORD                178       0.000       0.002     0.09
PHION                  6       0.022       0.133     6.15
COMM_BSC             278       0.000       0.002     0.09
POISON                71       0.000       0.014     0.66
fft                  142       0.000       0.010     0.44
setup_H               59       0.008       0.490    22.72
DHSCF                 65       0.011       0.736    34.13
DHSCF3                65       0.008       0.537    24.90
rhoofd                65       0.004       0.254    11.78
XC                    65       0.001       0.065     3.02
GXC-CellXC            65       0.001       0.064     2.98
gridxc@cellXC         65       0.001       0.064     2.97
vmat                  65       0.003       0.197     9.15
IterSCF               53       0.018       0.934    43.34
compute_dm            53       0.009       0.487    22.60
diagon                53       0.009       0.486    22.54
c-eigval             636       0.000       0.127     5.87
c-buildHS            636       0.000       0.083     3.84
cdiag               1272       0.000       0.130     6.04
cdiag1              1272       0.000       0.006     0.27
cdiag2              1272       0.000       0.024     1.13
cdiag3              1272       0.000       0.091     4.23
c-eigvec             636       0.000       0.171     7.91
cdiag4               636       0.000       0.004     0.19
c-buildD             636       0.000       0.187     8.68
MIXER                 47       0.000       0.002     0.11
PostSCF                6       0.059       0.355    16.46
DHSCF4                 6       0.033       0.199     9.23
dfscf                  6       0.024       0.143     6.62
overfsm                6       0.001       0.005     0.24
state_analysis         6       0.000       0.001     0.03
siesta_move            6       0.000       0.000     0.02
Analysis               1       0.001       0.001     0.02
optical                1       0.000       0.000     0.00
  

>> End of run:  28-SEP-2023  15:37:10
Job completed
