Siesta Version  : 5.0.0-alpha-123-gfb8fd7d02
Architecture    : ----
Compiler version: GNU-11.4.0
Compiler flags  : -fallow-argument-mismatch;-O3 -march=native
PP flags        : ----
Libraries       : ----
Parallelisations: none
GEMM3M support
NetCDF support
NetCDF-4 support
Lua support

Runtime information:
* Directory : /home/fnpedron/Siesta/siesta-dev/Tests/08.GeometryOptimization/work/cg_vc
* Running in serial mode.
>> Start of run:  28-SEP-2023  15:37:10

                           *********************** 
                           *  WELCOME TO SIESTA  * 
                           *********************** 

reinit: Reading from standard input
reinit: Dumping input in INPUT_TMP.24309
************************** Dump of input data file ****************************
%include ../../basejob.fdf
SystemLabel      cg_vc
MD.TypeOfRun      cg
MD.VariableCell   T
************************** End of input data file *****************************

reinit: -----------------------------------------------------------------------
reinit: System Name: MgCO3
reinit: -----------------------------------------------------------------------
reinit: System Label: cg_vc
reinit: -----------------------------------------------------------------------

initatom: Reading input for the pseudopotentials and atomic orbitals ----------
Species number:   1 Atomic number:   12 Label: Mg
Species number:   2 Atomic number:    6 Label: C
Species number:   3 Atomic number:    8 Label: O


---- Processing specs for species: Mg
Ground state valence configuration:   3s02
Reading pseudopotential information in formatted form from:
  /home/fnpedron/Siesta/siesta-dev/Tests/Pseudos/Mg.psf

---- Processing specs for species: C
Ground state valence configuration:   2s02  2p02
Reading pseudopotential information in formatted form from:
  /home/fnpedron/Siesta/siesta-dev/Tests/Pseudos/C.psf

---- Processing specs for species: O
Ground state valence configuration:   2s02  2p04
Reading pseudopotential information in formatted form from:
  /home/fnpedron/Siesta/siesta-dev/Tests/Pseudos/O.psf

---- Pseudopotential check for Mg

Pseudized shells:
3s( 2.00) rc: 2.59
3p( 0.00) rc: 2.59
3d( 0.00) rc: 2.59
4f( 0.00) rc: 2.59
Valence configuration for ps generation: (assumed as above)

---- Pseudopotential check for C 

Pseudized shells:
2s( 2.00) rc: 1.49
2p( 2.00) rc: 1.52
3d( 0.00) rc: 1.58
Valence configuration for ps generation: (assumed as above)

---- Pseudopotential check for O 

Pseudized shells:
2s( 2.00) rc: 1.14
2p( 4.00) rc: 1.14
3d( 0.00) rc: 1.14
4f( 0.00) rc: 1.14
Valence configuration for ps generation: (assumed as above)
For Mg, standard SIESTA heuristics set lmxkb to 1
 (one more than the basis l, including polarization orbitals).
Use PS.lmax or PS.KBprojectors blocks to override.
For C, standard SIESTA heuristics set lmxkb to 2
 (one more than the basis l, including polarization orbitals).
Use PS.lmax or PS.KBprojectors blocks to override.
For O, standard SIESTA heuristics set lmxkb to 2
 (one more than the basis l, including polarization orbitals).
Use PS.lmax or PS.KBprojectors blocks to override.

<basis_specs>
===============================================================================
Mg                   Z=  12    Mass=  24.305        Charge= 0.17977+309
Lmxo=0 Lmxkb= 1    BasisType=split      Semic=F
L=0  Nsemic=0  Cnfigmx=3
          i=1  nzeta=1  polorb=0  (3s)
            splnorm:   0.15000    
               vcte:    40.000    
               rinn:  -0.90000    
               qcoe:    0.0000    
               qyuk:    0.0000    
               qwid:   0.10000E-01
                rcs:    0.0000    
            lambdas:    1.0000    
-------------------------------------------------------------------------------
L=0  Nkbl=1  erefs: 0.17977+309
L=1  Nkbl=1  erefs: 0.17977+309
===============================================================================
</basis_specs>

Using PAO.SplitTailNorm
atom: Called for Mg                    (Z =  12)
Maximum radius (at nrval) set to   50.00000 8518

read_vps: Pseudopotential generation method:
read_vps: ATM3      Troullier-Martins                       
Valence charge in pseudo generation:    2.00000

xc_check: Exchange-correlation functional:
xc_check: Ceperley-Alder
V l=0 = -2*Zval/r beyond r=  3.6077
V l=1 = -2*Zval/r beyond r=  3.6077
All V_l potentials equal beyond r=  2.5675
This should be close to max(r_c) in ps generation
All pots = -2*Zval/r beyond r=  3.6077
Using large-core scheme (fit) for Vlocal

atom: Estimated core radius    3.60767

atom: Including non-local core corrections could be a good idea
Fit of Vlocal with continuous 2nd derivative
Fitting vlocal at       2.5753
Choosing vlocal chloc cutoff:***  3.897234
qtot up to nchloc:    2.00021543
atom: Maximum radius for chlocal:    3.89723
atom: Maximum radius for r*vlocal+2*Zval:    3.89723

KBgen: Kleinman-Bylander projectors: 
GHOST: No ghost state for L =  0
   l= 0   rc=  2.567525   el= -0.351328   Ekb=  2.696148   kbcos=  0.292957
GHOST: No ghost state for L =  1
   l= 1   rc=  2.590828   el= -0.101748   Ekb=  1.049266   kbcos=  0.260113

KBgen: Total number of Kleinman-Bylander projectors:   4
atom: -------------------------------------------------------------------------

atom: SANKEY-TYPE ORBITALS:

SPLIT: Orbitals with angular momentum L= 0

SPLIT: Basis orbitals for state 3s

SPLIT: PAO cut-off radius determined from an
SPLIT: energy shift=  0.010000 Ry
Split based on tail norm

   izeta = 1
                 lambda =    1.000000
                     rc =    7.238756
                 energy =   -0.339633
                kinetic =    0.272466
    potential(screened) =   -0.612099
       potential(ionic) =   -1.372639
atom: Total number of Sankey-type orbitals:  1

atm_pop: Valence configuration (for local Pseudopot. screening):
 3s( 2.00)                                                            
Vna: chval, zval:    2.00000   2.00000

Vna:  Cut-off radius for the neutral-atom potential:   7.238756

atom: _________________________________________________________________________

<basis_specs>
===============================================================================
C                    Z=   6    Mass=  12.011        Charge= 0.17977+309
Lmxo=1 Lmxkb= 2    BasisType=split      Semic=F
L=0  Nsemic=0  Cnfigmx=2
          i=1  nzeta=1  polorb=0  (2s)
            splnorm:   0.15000    
               vcte:    40.000    
               rinn:  -0.90000    
               qcoe:    0.0000    
               qyuk:    0.0000    
               qwid:   0.10000E-01
                rcs:    0.0000    
            lambdas:    1.0000    
L=1  Nsemic=0  Cnfigmx=2
          i=1  nzeta=1  polorb=0  (2p)
            splnorm:   0.15000    
               vcte:    40.000    
               rinn:  -0.90000    
               qcoe:    0.0000    
               qyuk:    0.0000    
               qwid:   0.10000E-01
                rcs:    0.0000    
            lambdas:    1.0000    
-------------------------------------------------------------------------------
L=0  Nkbl=1  erefs: 0.17977+309
L=1  Nkbl=1  erefs: 0.17977+309
L=2  Nkbl=1  erefs: 0.17977+309
===============================================================================
</basis_specs>

Using PAO.SplitTailNorm
atom: Called for C                     (Z =   6)
Maximum radius (at nrval) set to   50.00000 8518

read_vps: Pseudopotential generation method:
read_vps: ATM3      Troullier-Martins                       
Valence charge in pseudo generation:    4.00000

xc_check: Exchange-correlation functional:
xc_check: Ceperley-Alder
V l=0 = -2*Zval/r beyond r=  1.4801
V l=1 = -2*Zval/r beyond r=  1.5087
V l=2 = -2*Zval/r beyond r=  1.5628
All V_l potentials equal beyond r=  1.5612
This should be close to max(r_c) in ps generation
All pots = -2*Zval/r beyond r=  1.5628
Using small-core scheme (local charge) for Vlocal

VLOCAL_FROM_CHLOCAL: 99.0% of the norm of Vloc inside     17.810 Ry
VLOCAL_FROM_CHLOCAL: 99.9% of the norm of Vloc inside     40.589 Ry
atom: Maximum radius for chlocal:    1.86354
atom: Maximum radius for r*vlocal+2*Zval:    1.70915

KBgen: Kleinman-Bylander projectors: 
GHOST: No ghost state for L =  0
   l= 0   rc=  1.745634   el= -1.001947   Ekb=  5.181804   kbcos=  0.300616
GHOST: No ghost state for L =  1
   l= 1   rc=  1.745634   el= -0.398598   Ekb= -4.328614   kbcos= -0.367151
GHOST: No ghost state for L =  2
   l= 2   rc=  1.934160   el=  0.013259   Ekb= -1.016084   kbcos= -0.010830

KBgen: Total number of Kleinman-Bylander projectors:   9
atom: -------------------------------------------------------------------------

atom: SANKEY-TYPE ORBITALS:

SPLIT: Orbitals with angular momentum L= 0

SPLIT: Basis orbitals for state 2s

SPLIT: PAO cut-off radius determined from an
SPLIT: energy shift=  0.010000 Ry
Split based on tail norm

   izeta = 1
                 lambda =    1.000000
                     rc =    4.511437
                 energy =   -0.990638
                kinetic =    0.865864
    potential(screened) =   -1.856502
       potential(ionic) =   -5.451831

SPLIT: Orbitals with angular momentum L= 1

SPLIT: Basis orbitals for state 2p

SPLIT: PAO cut-off radius determined from an
SPLIT: energy shift=  0.010000 Ry
Split based on tail norm

   izeta = 1
                 lambda =    1.000000
                     rc =    5.413980
                 energy =   -0.387425
                kinetic =    2.474707
    potential(screened) =   -2.862132
       potential(ionic) =   -6.338849
atom: Total number of Sankey-type orbitals:  4

atm_pop: Valence configuration (for local Pseudopot. screening):
 2s( 2.00)                                                            
 2p( 2.00)                                                            
Vna: chval, zval:    4.00000   4.00000

Vna:  Cut-off radius for the neutral-atom potential:   5.413980

atom: _________________________________________________________________________

<basis_specs>
===============================================================================
O                    Z=   8    Mass=  15.999        Charge= 0.17977+309
Lmxo=1 Lmxkb= 2    BasisType=split      Semic=F
L=0  Nsemic=0  Cnfigmx=2
          i=1  nzeta=1  polorb=0  (2s)
            splnorm:   0.15000    
               vcte:    40.000    
               rinn:  -0.90000    
               qcoe:    0.0000    
               qyuk:    0.0000    
               qwid:   0.10000E-01
                rcs:    0.0000    
            lambdas:    1.0000    
L=1  Nsemic=0  Cnfigmx=2
          i=1  nzeta=1  polorb=0  (2p)
            splnorm:   0.15000    
               vcte:    40.000    
               rinn:  -0.90000    
               qcoe:    0.0000    
               qyuk:    0.0000    
               qwid:   0.10000E-01
                rcs:    0.0000    
            lambdas:    1.0000    
-------------------------------------------------------------------------------
L=0  Nkbl=1  erefs: 0.17977+309
L=1  Nkbl=1  erefs: 0.17977+309
L=2  Nkbl=1  erefs: 0.17977+309
===============================================================================
</basis_specs>

Using PAO.SplitTailNorm
atom: Called for O                     (Z =   8)
Maximum radius (at nrval) set to   50.00000 8518

read_vps: Pseudopotential generation method:
read_vps: ATM3      Troullier-Martins                       
Valence charge in pseudo generation:    6.00000

xc_check: Exchange-correlation functional:
xc_check: Ceperley-Alder
V l=0 = -2*Zval/r beyond r=  1.1366
V l=1 = -2*Zval/r beyond r=  1.1332
V l=2 = -2*Zval/r beyond r=  1.1298
All V_l potentials equal beyond r=  1.1355
This should be close to max(r_c) in ps generation
All pots = -2*Zval/r beyond r=  1.1366
Using small-core scheme (local charge) for Vlocal

VLOCAL_FROM_CHLOCAL: 99.0% of the norm of Vloc inside     33.667 Ry
VLOCAL_FROM_CHLOCAL: 99.9% of the norm of Vloc inside     76.727 Ry
atom: Maximum radius for chlocal:    1.37241
atom: Maximum radius for r*vlocal+2*Zval:    1.25469

KBgen: Kleinman-Bylander projectors: 
GHOST: No ghost state for L =  0
   l= 0   rc=  1.293209   el= -1.742414   Ekb=  9.076872   kbcos=  0.325320
GHOST: No ghost state for L =  1
   l= 1   rc=  1.284119   el= -0.676589   Ekb= -8.194485   kbcos= -0.396010
GHOST: No ghost state for L =  2
   l= 2   rc=  1.433152   el=  0.013307   Ekb= -2.071665   kbcos= -0.003690

KBgen: Total number of Kleinman-Bylander projectors:   9
atom: -------------------------------------------------------------------------

atom: SANKEY-TYPE ORBITALS:

SPLIT: Orbitals with angular momentum L= 0

SPLIT: Basis orbitals for state 2s

SPLIT: PAO cut-off radius determined from an
SPLIT: energy shift=  0.010000 Ry
Split based on tail norm

   izeta = 1
                 lambda =    1.000000
                     rc =    3.560943
                 energy =   -1.731321
                kinetic =    1.587329
    potential(screened) =   -3.318651
       potential(ionic) =  -11.260325

SPLIT: Orbitals with angular momentum L= 1

SPLIT: Basis orbitals for state 2p

SPLIT: PAO cut-off radius determined from an
SPLIT: energy shift=  0.010000 Ry
Split based on tail norm

   izeta = 1
                 lambda =    1.000000
                     rc =    4.290924
                 energy =   -0.665565
                kinetic =    4.934810
    potential(screened) =   -5.600376
       potential(ionic) =  -13.346429
atom: Total number of Sankey-type orbitals:  4

atm_pop: Valence configuration (for local Pseudopot. screening):
 2s( 2.00)                                                            
 2p( 4.00)                                                            
Vna: chval, zval:    6.00000   6.00000

Vna:  Cut-off radius for the neutral-atom potential:   4.290924

atom: _________________________________________________________________________

prinput: Basis input 

PAO.BasisType split     

%block ChemicalSpeciesLabel
    1   12 Mg                      # Species index, atomic number, species label
    2    6 C                       # Species index, atomic number, species label
    3    8 O                       # Species index, atomic number, species label
%endblock ChemicalSpeciesLabel

%block PAO.Basis                 # Define Basis set
# WARNING: This information might be incomplete!
Mg                    1                    # Species label, number of l-shells
 n=3   0   1                         # n, l, Nzeta 
   7.239   
   1.000   
C                     2                    # Species label, number of l-shells
 n=2   0   1                         # n, l, Nzeta 
   4.511   
   1.000   
 n=2   1   1                         # n, l, Nzeta 
   5.414   
   1.000   
O                     2                    # Species label, number of l-shells
 n=2   0   1                         # n, l, Nzeta 
   3.561   
   1.000   
 n=2   1   1                         # n, l, Nzeta 
   4.291   
   1.000   
%endblock PAO.Basis

prinput: ----------------------------------------------------------------------

Dumping basis to NetCDF file Mg.ion.nc
Dumping basis to NetCDF file C.ion.nc
Dumping basis to NetCDF file O.ion.nc
coor:   Atomic-coordinates input format  =     Fractional

siesta: Atomic coordinates (Bohr) and species
siesta:      0.00000   0.00000   0.00000  1        1
siesta:     12.51929   5.59740   3.66414  1        2
siesta:      6.25965   2.79870   1.83207  2        3
siesta:     -6.25965  -2.79870  -1.83207  2        4
siesta:      7.25136   0.58061   1.83207  3        5
siesta:      6.25965   4.12944  -0.20079  3        6
siesta:      5.26793   3.68605   3.86493  3        7
siesta:     -7.25136  -0.58061  -1.83207  3        8
siesta:     -6.25965  -4.12944   0.20079  3        9
siesta:     -5.26793  -3.68605  -3.86493  3       10

siesta: System type = bulk      

initatomlists: Number of atoms, orbitals, and projectors:     10    34    80

siesta: ******************** Simulation parameters ****************************
siesta:
siesta: The following are some of the parameters of the simulation.
siesta: A complete list of the parameters used, including default values,
siesta: can be found in file out.fdf
siesta:
redata: Spin configuration                          = none
redata: Number of spin components                   = 1
redata: Time-Reversal Symmetry                      = T
redata: Spin spiral                                 = F
redata: Long output                                 =   F
redata: Number of Atomic Species                    =        3
redata: Charge density info will appear in .RHO file
redata: Write Mulliken Pop.                         = NO
redata: Matel table size (NRTAB)                    =     1024
redata: Mesh Cutoff                                 =    50.0000 Ry
redata: Net charge of the system                    =     0.0000 |e|
redata: Min. number of SCF Iter                     =        0
redata: Max. number of SCF Iter                     =     1000
redata: SCF convergence failure will abort job
redata: SCF mix quantity                            = Hamiltonian
redata: Mix DM or H after convergence               =   F
redata: Recompute H after scf cycle                 =   F
redata: Mix DM in first SCF step                    =   T
redata: Write Pulay info on disk                    =   F
redata: New DM Occupancy tolerance                  = 0.000000000001
redata: No kicks to SCF
redata: DM Mixing Weight for Kicks                  =     0.5000
redata: Require Harris convergence for SCF          =   F
redata: Harris energy tolerance for SCF             =     0.000100 eV
redata: Require DM convergence for SCF              =   T
redata: DM tolerance for SCF                        =     0.000100
redata: Require EDM convergence for SCF             =   F
redata: EDM tolerance for SCF                       =     0.001000 eV
redata: Require H convergence for SCF               =   T
redata: Hamiltonian tolerance for SCF               =     0.001000 eV
redata: Require (free) Energy convergence for SCF   =   F
redata: (free) Energy tolerance for SCF             =     0.000100 eV
redata: Using DFT-D3 dispersion                     =   F
redata: Using Saved Data (generic)                  =   F
redata: Use continuation files for DM               =   F
redata: Neglect nonoverlap interactions             =   F
redata: Method of Calculation                       = Diagonalization
redata: Electronic Temperature                      =   299.9863 K
redata: Fix the spin of the system                  =   F
redata: Max. number of TDED Iter                    =        1
redata: Number of TDED substeps                     =        3
redata: Dynamics option                             = CG coord. optimization
redata: Variable cell                               =   T
redata: Use continuation files for CG               =   F
redata: Max atomic displ per move                   =     0.1000 Ang
redata: Maximum number of optimization moves        =        5
redata: Force tolerance                             =     0.0400 eV/Ang
redata: Stress tolerance                            =     2.0000 GPa
mix.SCF: Pulay mixing                            = Pulay
mix.SCF:    Variant                              = stable
mix.SCF:    History steps                        = 2
mix.SCF:    Linear mixing weight                 =     0.250000
mix.SCF:    Mixing weight                        =     0.250000
mix.SCF:    SVD condition                        = 0.1000E-07
redata: Save all siesta data in one NC              =   F
redata: ***********************************************************************

%block SCF.Mixers
  Pulay
%endblock SCF.Mixers

%block SCF.Mixer.Pulay
  # Mixing method
  method pulay
  variant stable

  # Mixing options
  weight 0.2500
  weight.linear 0.2500
  history 2
%endblock SCF.Mixer.Pulay

DM_history_depth set to one: no extrapolation allowed by default for geometry relaxation
Size of DM history Fstack: 1
Total number of electrons:    48.000000
Total ionic charge:    48.000000
 Kpoints in:           12 . Kpoints trimmed:           12

siesta: k-grid: Number of k-points = 12
siesta: k-points from cutoff
siesta: k-cutoff (effective) =     5.678 Ang
siesta: k-point supercell and displacements
siesta: k-grid:    -3     0     3      0.500
siesta: k-grid:     0    -3     3      0.000
siesta: k-grid:     0     0     2      0.000

diag: Algorithm                                     = D&C
diag: Used triangular part                          = Lower
diag: Absolute tolerance                            =  0.100E-15
diag: Orthogonalization factor                      =  0.100E-05
diag: Memory factor                                 =  1.0000

superc: Internal auxiliary supercell:     5 x     5 x     5  =     125
superc: Number of atoms, orbitals, and projectors:   1250   4250  10000


ts: **************************************************************
ts: Save H and S matrices                           =    F
ts: Save DM and EDM matrices                        =    F
ts: Only save the overlap matrix S                  =    F
ts: **************************************************************

************************ Begin: TS CHECKS AND WARNINGS ************************
************************ End: TS CHECKS AND WARNINGS **************************


                     ====================================
                        Begin CG opt. move =      0
                     ====================================

outcoor: Atomic coordinates (fractional):                   
    0.00000000    0.00000000    0.00000000   1       1  Mg
    0.50000000    0.50000000    0.50000000   1       2  Mg
    0.25000000    0.25000000    0.25000000   2       3  C
   -0.25000000   -0.25000000   -0.25000000   2       4  C
    0.52740000   -0.02740000    0.25000000   3       5  O
    0.25000000    0.52740000   -0.02740000   3       6  O
   -0.02740000    0.25000000    0.52740000   3       7  O
   -0.52740000    0.02740000   -0.25000000   3       8  O
   -0.25000000   -0.52740000    0.02740000   3       9  O
    0.02740000   -0.25000000   -0.52740000   3      10  O

superc: Internal auxiliary supercell:     5 x     5 x     5  =     125
superc: Number of atoms, orbitals, and projectors:   1250   4250  10000

outcell: Unit cell vectors (Ang):
        5.677830    0.000000    0.000000
        3.786009    4.231299    0.000000
        3.786009    1.692731    3.877957

outcell: Cell vector modules (Ang)   :    5.677830    5.677830    5.677830
outcell: Cell angles (23,13,12) (deg):     48.1790     48.1790     48.1790
outcell: Cell volume (Ang**3)        :     93.1663
<dSpData1D:S at geom step 0
  <sparsity:sparsity for geom step 0
    nrows_g=34 nrows=34 sparsity=10.6834 nnzs=12350, refcount: 7>
  <dData1D:(new from dSpData1D) n=12350, refcount: 1>
refcount: 1>
new_DM -- step:     1
Initializing Density Matrix...
DM filled with atomic data:
<dSpData2D:DM initialized from atoms
  <sparsity:sparsity for geom step 0
    nrows_g=34 nrows=34 sparsity=10.6834 nnzs=12350, refcount: 8>
  <dData2D:DM n=12350 m=1, refcount: 1>
refcount: 1>
No. of atoms with KB's overlaping orbs in proc 0. Max # of overlaps:     129      93

InitMesh: MESH = 24 x 24 x 24 = 13824
InitMesh: Mesh cutoff (required, used) =    50.000    63.482 Ry
New grid distribution [1]: sub = 2

stepf: Fermi-Dirac step function

siesta: Program's energy decomposition (eV):
siesta: Ebs     =      -589.780073
siesta: Eions   =      5249.502762
siesta: Ena     =      1131.157040
siesta: Ekin    =      2359.424687
siesta: Enl     =      -400.615198
siesta: Eso     =         0.000000
siesta: Edftu   =         0.000000
siesta: DEna    =       -97.751840
siesta: DUscf   =        22.539196
siesta: DUext   =         0.000000
siesta: Ex      =      -640.394102
siesta: Ec      =       -77.786808
siesta: Exc     =      -718.180909
siesta: EbV     =         0.000000
siesta: eta*DQ  =         0.000000
siesta: Emadel  =         0.000000
siesta: Emeta   =         0.000000
siesta: Emolmec =         0.000000
siesta: Ekinion =         0.000000
siesta: Eharris =     -2902.075069
siesta: Etot    =     -2952.929787
siesta: FreeEng =     -2952.929787

        iscf     Eharris(eV)        E_KS(eV)     FreeEng(eV)     dDmax    Ef(eV) dHmax(eV)
   scf:    1    -2902.075069    -2952.929787    -2952.929787  1.801898 -3.702524  4.572038
timer: Routine,Calls,Time,% = IterSCF        1       0.018   5.53
   scf:    2    -2964.871605    -2959.585913    -2959.585913  0.187089 -3.854108  2.422891
   scf:    3    -2961.972495    -2961.352073    -2961.352073  0.188526 -3.834771  0.640200
   scf:    4    -2961.415956    -2961.385483    -2961.385483  0.009823 -3.733716  0.387105
   scf:    5    -2961.423991    -2961.407999    -2961.407999  0.020606 -3.555753  0.058666
   scf:    6    -2961.409162    -2961.408647    -2961.408647  0.002389 -3.550476  0.026282
   scf:    7    -2961.408991    -2961.408849    -2961.408849  0.002059 -3.550032  0.011932
   scf:    8    -2961.408855    -2961.408852    -2961.408852  0.000147 -3.552923  0.007826
   scf:    9    -2961.408854    -2961.408853    -2961.408853  0.000202 -3.559110  0.001972
   scf:   10    -2961.408854    -2961.408854    -2961.408854  0.000048 -3.559874  0.000948

SCF Convergence by DM+H criterion
max |DM_out - DM_in|         :     0.0000482637
max |H_out - H_in|      (eV) :     0.0009477601
SCF cycle converged after 10 iterations

Using DM_out to compute the final energy and forces
No. of atoms with KB's overlaping orbs in proc 0. Max # of overlaps:     129      93

siesta: E_KS(eV) =            -2961.4089

siesta: E_KS - E_eggbox =     -2961.4089

siesta: Atomic forces (eV/Ang):
     1   -0.000000   -0.000000   -0.000000
     2   -0.000000    0.000000    0.000000
     3    0.001422   -0.000199   -0.003353
     4   -0.001422    0.000199    0.003353
     5    3.569916   -7.986374   -0.001363
     6    0.000090    4.790229   -7.318174
     7   -3.571479    3.197462    7.322958
     8   -3.569916    7.986374    0.001363
     9   -0.000090   -4.790229    7.318174
    10    3.571479   -3.197462   -7.322958
----------------------------------------
   Tot    0.000000    0.000000   -0.000000
----------------------------------------
   Max    7.986374
   Res    3.912658    sqrt( Sum f_i^2 / 3N )
----------------------------------------
   Max    7.986374    constrained

Stress tensor Voigt[x,y,z,yz,xz,xy] (kbar):      129.20     -233.45     -285.13       59.22      132.55      202.68
(Free)E + p*V (eV/cell)    -2953.8616
Target enthalpy (eV/cell)    -2903.2590

siesta: Stress tensor (static) (eV/Ang**3):
         0.080643    0.126501    0.082731
         0.126501   -0.145707    0.036963
         0.082731    0.036963   -0.177961

siesta: Pressure (static):        129.78920600  kBar

siesta: Stress tensor (total) (eV/Ang**3):
         0.080643    0.126501    0.082731
         0.126501   -0.145707    0.036963
         0.082731    0.036963   -0.177961

siesta: Pressure (total):        129.78920600  kBar

cgvc: No target stress found, assuming hydrostatic MD.TargetPressure.

cgvc: Target stress (kBar)
cgvc:     -1000.000       0.000       0.000
cgvc:         0.000   -1000.000       0.000
cgvc:         0.000       0.000   -1000.000

                     ====================================
                        Begin CG opt. move =      1
                     ====================================

outcoor: Atomic coordinates (fractional):                   
   -0.00000000   -0.00000000   -0.00000000   1       1  Mg
    0.50000000    0.50000000    0.50000000   1       2  Mg
    0.25000114    0.25000064    0.24999888   2       3  C
   -0.25000114   -0.25000064   -0.24999888   2       4  C
    0.53026239   -0.03026346    0.24999882   3       5  O
    0.25000007    0.53026237   -0.03026257   3       6  O
   -0.03026364    0.25000110    0.53026515   3       7  O
   -0.53026239    0.03026346   -0.24999882   3       8  O
   -0.25000007   -0.53026237    0.03026257   3       9  O
    0.03026364   -0.25000110   -0.53026515   3      10  O
 Kpoints in:           12 . Kpoints trimmed:           12

siesta: k-grid: Number of k-points = 12
siesta: k-points from cutoff
siesta: k-cutoff (effective) =     5.610 Ang
siesta: k-point supercell and displacements
siesta: k-grid:     0     3    -3      0.500
siesta: k-grid:     3     0    -3      0.000
siesta: k-grid:     0     2     0      0.000

superc: Internal auxiliary supercell:     5 x     5 x     5  =     125
superc: Number of atoms, orbitals, and projectors:   1250   4250  10000

outcell: Unit cell vectors (Ang):
        5.609938   -0.012186   -0.007969
        3.731657    4.188827   -0.007967
        3.731663    1.668434    3.842225

outcell: Cell vector modules (Ang)   :    5.609957    5.609956    5.609962
outcell: Cell angles (23,13,12) (deg):     48.4277     48.4278     48.4278
outcell: Cell volume (Ang**3)        :     90.6133
<dSpData1D:S at geom step 1
  <sparsity:sparsity for geom step 1
    nrows_g=34 nrows=34 sparsity=10.6834 nnzs=12350, refcount: 7>
  <dData1D:(new from dSpData1D) n=12350, refcount: 1>
refcount: 1>
new_DM -- step:     2
Re-using DM from previous geometries...
Number of DMs in history: 1
 DM extrapolation coefficients: 
1   1.00000
New DM after history re-use:
<dSpData2D:SpM extrapolated using coords
  <sparsity:sparsity for geom step 1
    nrows_g=34 nrows=34 sparsity=10.6834 nnzs=12350, refcount: 9>
  <dData2D:(temp array for extrapolation) n=12350 m=1, refcount: 1>
refcount: 1>
No. of atoms with KB's overlaping orbs in proc 0. Max # of overlaps:     129      93

InitMesh: MESH = 24 x 24 x 24 = 13824
InitMesh: Mesh cutoff (required, used) =    50.000    65.209 Ry
New grid distribution [1]: sub = 2

        iscf     Eharris(eV)        E_KS(eV)     FreeEng(eV)     dDmax    Ef(eV) dHmax(eV)
   scf:    1    -2962.043949    -2962.002506    -2962.002506  0.026207 -3.739755  0.101893
   scf:    2    -2962.001516    -2962.002563    -2962.002563  0.006076 -3.660149  0.062837
   scf:    3    -2962.003477    -2962.003135    -2962.003135  0.002787 -3.684754  0.010736
   scf:    4    -2962.003166    -2962.003152    -2962.003152  0.000305 -3.682851  0.006073
   scf:    5    -2962.003160    -2962.003158    -2962.003158  0.000323 -3.679846  0.001851
   scf:    6    -2962.003158    -2962.003158    -2962.003158  0.000023 -3.679278  0.000990

SCF Convergence by DM+H criterion
max |DM_out - DM_in|         :     0.0000234916
max |H_out - H_in|      (eV) :     0.0009895950
SCF cycle converged after 6 iterations

Using DM_out to compute the final energy and forces
No. of atoms with KB's overlaping orbs in proc 0. Max # of overlaps:     129      93

siesta: E_KS(eV) =            -2962.0032

siesta: Atomic forces (eV/Ang):
     1   -0.000000   -0.000000   -0.000000
     2   -0.000000    0.000000    0.000000
     3   -0.002923    0.002311    0.006358
     4    0.002923   -0.002311   -0.006358
     5    3.389825   -7.581986    0.001133
     6   -0.000343    4.549888   -6.948717
     7   -3.385892    3.029051    6.939883
     8   -3.389825    7.581986   -0.001133
     9    0.000343   -4.549888    6.948717
    10    3.385892   -3.029051   -6.939883
----------------------------------------
   Tot   -0.000000   -0.000000   -0.000000
----------------------------------------
   Max    7.581986
   Res    3.712726    sqrt( Sum f_i^2 / 3N )
----------------------------------------
   Max    7.581986    constrained

Stress tensor Voigt[x,y,z,yz,xz,xy] (kbar):      104.94     -243.44     -293.21       57.00      127.41      194.71
(Free)E + p*V (eV/cell)    -2953.8645
Target enthalpy (eV/cell)    -2905.4468

siesta: Stress tensor (static) (eV/Ang**3):
         0.065496    0.121528    0.079524
         0.121528   -0.151942    0.035579
         0.079524    0.035579   -0.183005

siesta: Pressure (static):        143.90291203  kBar

siesta: Stress tensor (total) (eV/Ang**3):
         0.065496    0.121528    0.079524
         0.121528   -0.151942    0.035579
         0.079524    0.035579   -0.183005

siesta: Pressure (total):        143.90291203  kBar

                     ====================================
                        Begin CG opt. move =      2
                     ====================================

outcoor: Atomic coordinates (fractional):                   
   -0.00000000   -0.00000000   -0.00000000   1       1  Mg
    0.50000000    0.50000000    0.50000000   1       2  Mg
    0.25000297    0.25000167    0.24999708   2       3  C
   -0.25000297   -0.25000167   -0.24999708   2       4  C
    0.53484221   -0.03484501    0.24999694   3       5  O
    0.25000019    0.53484216   -0.03484268   3       6  O
   -0.03484547    0.25000285    0.53484938   3       7  O
   -0.53484221    0.03484501   -0.24999694   3       8  O
   -0.25000019   -0.53484216    0.03484268   3       9  O
    0.03484547   -0.25000285   -0.53484938   3      10  O
 Kpoints in:           12 . Kpoints trimmed:           12

siesta: k-grid: Number of k-points = 12
siesta: k-points from cutoff
siesta: k-cutoff (effective) =     5.501 Ang
siesta: k-point supercell and displacements
siesta: k-grid:     0     3    -3      0.500
siesta: k-grid:     3     0    -3      0.000
siesta: k-grid:     0     2     0      0.000

superc: Internal auxiliary supercell:     5 x     5 x     5  =     125
superc: Number of atoms, orbitals, and projectors:   1250   4250  10000

outcell: Unit cell vectors (Ang):
        5.501312   -0.031683   -0.020720
        3.644695    4.120873   -0.020715
        3.644708    1.629558    3.785055

outcell: Cell vector modules (Ang)   :    5.501442    5.501438    5.501454
outcell: Cell angles (23,13,12) (deg):     48.8382     48.8383     48.8385
outcell: Cell volume (Ang**3)        :     86.6213
<dSpData1D:S at geom step 2
  <sparsity:sparsity for geom step 2
    nrows_g=34 nrows=34 sparsity=10.8702 nnzs=12566, refcount: 7>
  <dData1D:(new from dSpData1D) n=12566, refcount: 1>
refcount: 1>
new_DM -- step:     3
Re-using DM from previous geometries...
Number of DMs in history: 1
 DM extrapolation coefficients: 
1   1.00000
New DM after history re-use:
<dSpData2D:SpM extrapolated using coords
  <sparsity:sparsity for geom step 2
    nrows_g=34 nrows=34 sparsity=10.8702 nnzs=12566, refcount: 9>
  <dData2D:(temp array for extrapolation) n=12566 m=1, refcount: 1>
refcount: 1>
No. of atoms with KB's overlaping orbs in proc 0. Max # of overlaps:     135      93

InitMesh: MESH = 24 x 24 x 24 = 13824
InitMesh: Mesh cutoff (required, used) =    50.000    68.121 Ry
New grid distribution [1]: sub = 2

        iscf     Eharris(eV)        E_KS(eV)     FreeEng(eV)     dDmax    Ef(eV) dHmax(eV)
   scf:    1    -2962.751154    -2962.799570    -2962.799570  0.016842 -3.941514  0.159499
   scf:    2    -2962.796994    -2962.799664    -2962.799664  0.009645 -3.820729  0.098515
   scf:    3    -2962.801967    -2962.801106    -2962.801106  0.004457 -3.857428  0.016895
   scf:    4    -2962.801186    -2962.801150    -2962.801150  0.000497 -3.854258  0.009808
   scf:    5    -2962.801171    -2962.801165    -2962.801165  0.000518 -3.849224  0.003235
   scf:    6    -2962.801166    -2962.801165    -2962.801165  0.000043 -3.848223  0.001706
   scf:    7    -2962.801166    -2962.801166    -2962.801166  0.000047 -3.847384  0.000247

SCF Convergence by DM+H criterion
max |DM_out - DM_in|         :     0.0000473723
max |H_out - H_in|      (eV) :     0.0002466541
SCF cycle converged after 7 iterations

Using DM_out to compute the final energy and forces
No. of atoms with KB's overlaping orbs in proc 0. Max # of overlaps:     135      93

siesta: E_KS(eV) =            -2962.8012

siesta: Atomic forces (eV/Ang):
     1    0.000000   -0.000000    0.000000
     2   -0.000000    0.000000   -0.000000
     3   -0.003294    0.002205    0.007624
     4    0.003294   -0.002205   -0.007624
     5    3.017051   -6.746426    0.001622
     6   -0.000406    4.049341   -6.183802
     7   -3.012382    2.693720    6.172561
     8   -3.017051    6.746426   -0.001622
     9    0.000406   -4.049341    6.183802
    10    3.012382   -2.693720   -6.172561
----------------------------------------
   Tot   -0.000000   -0.000000   -0.000000
----------------------------------------
   Max    6.746426
   Res    3.303378    sqrt( Sum f_i^2 / 3N )
----------------------------------------
   Max    6.746426    constrained

Stress tensor Voigt[x,y,z,yz,xz,xy] (kbar):       57.69     -266.82     -313.10       53.15      118.63      181.32
(Free)E + p*V (eV/cell)    -2953.3897
Target enthalpy (eV/cell)    -2908.7364

siesta: Stress tensor (static) (eV/Ang**3):
         0.036008    0.113170    0.074041
         0.113170   -0.166536    0.033171
         0.074041    0.033171   -0.195424

siesta: Pressure (static):        174.07752703  kBar

siesta: Stress tensor (total) (eV/Ang**3):
         0.036008    0.113170    0.074041
         0.113170   -0.166536    0.033171
         0.074041    0.033171   -0.195424

siesta: Pressure (total):        174.07752703  kBar

                     ====================================
                        Begin CG opt. move =      3
                     ====================================

outcoor: Atomic coordinates (fractional):                   
   -0.00000000   -0.00000000   -0.00000000   1       1  Mg
    0.50000000    0.50000000    0.50000000   1       2  Mg
    0.25000487    0.25000274    0.24999520   2       3  C
   -0.25000487   -0.25000274   -0.24999520   2       4  C
    0.53962988   -0.03963448    0.24999497   3       5  O
    0.25000031    0.53962979   -0.03963065   3       6  O
   -0.03963524    0.25000468    0.53964167   3       7  O
   -0.53962988    0.03963448   -0.24999497   3       8  O
   -0.25000031   -0.53962979    0.03963065   3       9  O
    0.03963524   -0.25000468   -0.53964167   3      10  O
 Kpoints in:           12 . Kpoints trimmed:           12

siesta: k-grid: Number of k-points = 12
siesta: k-points from cutoff
siesta: k-cutoff (effective) =     5.388 Ang
siesta: k-point supercell and displacements
siesta: k-grid:     0     3    -3      0.500
siesta: k-grid:     3     0    -3      0.000
siesta: k-grid:     0     2     0      0.000

superc: Internal auxiliary supercell:     5 x     5 x     5  =     125
superc: Number of atoms, orbitals, and projectors:   1250   4250  10000

outcell: Unit cell vectors (Ang):
        5.387755   -0.052065   -0.034050
        3.553785    4.049834   -0.034042
        3.553807    1.588917    3.725291

outcell: Cell vector modules (Ang)   :    5.388114    5.388108    5.388135
outcell: Cell angles (23,13,12) (deg):     49.2847     49.2848     49.2852
outcell: Cell volume (Ang**3)        :     82.5688
<dSpData1D:S at geom step 3
  <sparsity:sparsity for geom step 3
    nrows_g=34 nrows=34 sparsity=11.2336 nnzs=12986, refcount: 7>
  <dData1D:(new from dSpData1D) n=12986, refcount: 1>
refcount: 1>
new_DM -- step:     4
Re-using DM from previous geometries...
Number of DMs in history: 1
 DM extrapolation coefficients: 
1   1.00000
New DM after history re-use:
<dSpData2D:SpM extrapolated using coords
  <sparsity:sparsity for geom step 3
    nrows_g=34 nrows=34 sparsity=11.2336 nnzs=12986, refcount: 9>
  <dData2D:(temp array for extrapolation) n=12986 m=1, refcount: 1>
refcount: 1>
No. of atoms with KB's overlaping orbs in proc 0. Max # of overlaps:     135      93

InitMesh: MESH = 24 x 24 x 24 = 13824
InitMesh: Mesh cutoff (required, used) =    50.000    71.380 Ry
New grid distribution [1]: sub = 2

        iscf     Eharris(eV)        E_KS(eV)     FreeEng(eV)     dDmax    Ef(eV) dHmax(eV)
   scf:    1    -2963.184425    -2963.389760    -2963.389760  0.016898 -4.064890  0.167095
   scf:    2    -2963.386588    -2963.389763    -2963.389763  0.010378 -3.944842  0.104204
   scf:    3    -2963.392439    -2963.391444    -2963.391444  0.004855 -3.980990  0.018657
   scf:    4    -2963.391536    -2963.391495    -2963.391495  0.000538 -3.977371  0.010904
   scf:    5    -2963.391518    -2963.391512    -2963.391512  0.000559 -3.971569  0.003731
   scf:    6    -2963.391513    -2963.391512    -2963.391512  0.000051 -3.970415  0.001920
   scf:    7    -2963.391513    -2963.391513    -2963.391513  0.000056 -3.969512  0.000263

SCF Convergence by DM+H criterion
max |DM_out - DM_in|         :     0.0000555608
max |H_out - H_in|      (eV) :     0.0002627926
SCF cycle converged after 7 iterations

Using DM_out to compute the final energy and forces
No. of atoms with KB's overlaping orbs in proc 0. Max # of overlaps:     135      93

siesta: E_KS(eV) =            -2963.3915

siesta: Atomic forces (eV/Ang):
     1   -0.000000    0.000000    0.000000
     2    0.000000    0.000000    0.000000
     3   -0.003578    0.002020    0.008688
     4    0.003578   -0.002020   -0.008688
     5    2.563854   -5.730502    0.002148
     6   -0.000465    3.440672   -5.253673
     7   -2.558460    2.286131    5.239680
     8   -2.563854    5.730502   -0.002148
     9    0.000465   -3.440672    5.253673
    10    2.558460   -2.286131   -5.239680
----------------------------------------
   Tot   -0.000000   -0.000000   -0.000000
----------------------------------------
   Max    5.730502
   Res    2.805682    sqrt( Sum f_i^2 / 3N )
----------------------------------------
   Max    5.730502    constrained

Stress tensor Voigt[x,y,z,yz,xz,xy] (kbar):       -4.43     -304.24     -346.90       49.16      109.52      167.44
(Free)E + p*V (eV/cell)    -2952.1300
Target enthalpy (eV/cell)    -2911.8561

siesta: Stress tensor (static) (eV/Ang**3):
        -0.002764    0.104510    0.068360
         0.104510   -0.189889    0.030683
         0.068360    0.030683   -0.216515

siesta: Pressure (static):        218.51999321  kBar

siesta: Stress tensor (total) (eV/Ang**3):
        -0.002764    0.104510    0.068360
         0.104510   -0.189889    0.030683
         0.068360    0.030683   -0.216515

siesta: Pressure (total):        218.51999321  kBar

                     ====================================
                        Begin CG opt. move =      4
                     ====================================

outcoor: Atomic coordinates (fractional):                   
   -0.00000000   -0.00000000   -0.00000000   1       1  Mg
    0.50000000    0.50000000    0.50000000   1       2  Mg
    0.25000678    0.25000381    0.24999332   2       3  C
   -0.25000678   -0.25000381   -0.24999332   2       4  C
    0.54441755   -0.04442395    0.24999300   3       5  O
    0.25000043    0.54441743   -0.04441862   3       6  O
   -0.04442500    0.25000652    0.54443395   3       7  O
   -0.54441755    0.04442395   -0.24999300   3       8  O
   -0.25000043   -0.54441743    0.04441862   3       9  O
    0.04442500   -0.25000652   -0.54443395   3      10  O
 Kpoints in:           12 . Kpoints trimmed:           12

siesta: k-grid: Number of k-points = 12
siesta: k-points from cutoff
siesta: k-cutoff (effective) =     5.275 Ang
siesta: k-point supercell and displacements
siesta: k-grid:     0     3    -3      0.500
siesta: k-grid:     3     0    -3      0.000
siesta: k-grid:     0     2     0      0.000

superc: Internal auxiliary supercell:     5 x     5 x     5  =     125
superc: Number of atoms, orbitals, and projectors:   1250   4250  10000

outcell: Unit cell vectors (Ang):
        5.274199   -0.072446   -0.047380
        3.462876    3.978796   -0.047368
        3.462907    1.548277    3.665526

outcell: Cell vector modules (Ang)   :    5.274909    5.274900    5.274937
outcell: Cell angles (23,13,12) (deg):     49.7500     49.7502     49.7507
outcell: Cell volume (Ang**3)        :     78.6380
<dSpData1D:S at geom step 4
  <sparsity:sparsity for geom step 4
    nrows_g=34 nrows=34 sparsity=11.2336 nnzs=12986, refcount: 7>
  <dData1D:(new from dSpData1D) n=12986, refcount: 1>
refcount: 1>
new_DM -- step:     5
Re-using DM from previous geometries...
Number of DMs in history: 1
 DM extrapolation coefficients: 
1   1.00000
New DM after history re-use:
<dSpData2D:SpM extrapolated using coords
  <sparsity:sparsity for geom step 4
    nrows_g=34 nrows=34 sparsity=11.2336 nnzs=12986, refcount: 9>
  <dData2D:(temp array for extrapolation) n=12986 m=1, refcount: 1>
refcount: 1>
No. of atoms with KB's overlaping orbs in proc 0. Max # of overlaps:     135      93

InitMesh: MESH = 20 x 20 x 20 = 8000
InitMesh: Mesh cutoff (required, used) =    50.000    51.999 Ry
New grid distribution [1]: sub = 2

        iscf     Eharris(eV)        E_KS(eV)     FreeEng(eV)     dDmax    Ef(eV) dHmax(eV)
   scf:    1    -2963.117588    -2963.515279    -2963.515279  0.043675 -4.121059  0.311461
   scf:    2    -2963.461362    -2963.506780    -2963.506780  0.036328 -3.999025  0.312427
   scf:    3    -2963.537076    -2963.527334    -2963.527334  0.019845 -4.053695  0.030085
   scf:    4    -2963.527418    -2963.527365    -2963.527365  0.000564 -4.046325  0.019941
   scf:    5    -2963.527431    -2963.527405    -2963.527405  0.001158 -4.030483  0.002232
   scf:    6    -2963.527406    -2963.527406    -2963.527406  0.000079 -4.030115  0.000907

SCF Convergence by DM+H criterion
max |DM_out - DM_in|         :     0.0000791358
max |H_out - H_in|      (eV) :     0.0009070909
SCF cycle converged after 6 iterations

Using DM_out to compute the final energy and forces
No. of atoms with KB's overlaping orbs in proc 0. Max # of overlaps:     135      93

siesta: E_KS(eV) =            -2963.5274

siesta: Atomic forces (eV/Ang):
     1   -0.000000    0.000000    0.000000
     2    0.000000    0.000000    0.000000
     3   -0.003838    0.001750    0.009688
     4    0.003838   -0.001750   -0.009688
     5    2.634943   -5.900432    0.001304
     6   -0.000433    3.542093   -5.408693
     7   -2.628003    2.353994    5.392599
     8   -2.634943    5.900432   -0.001304
     9    0.000433   -3.542093    5.408693
    10    2.628003   -2.353994   -5.392599
----------------------------------------
   Tot   -0.000000   -0.000000   -0.000000
----------------------------------------
   Max    5.900432
   Res    2.887748    sqrt( Sum f_i^2 / 3N )
----------------------------------------
   Max    5.900432    constrained

Stress tensor Voigt[x,y,z,yz,xz,xy] (kbar):       82.99     -334.15     -393.36       68.42      152.35      232.84
(Free)E + p*V (eV/cell)    -2952.9826
Target enthalpy (eV/cell)    -2914.4455

siesta: Stress tensor (static) (eV/Ang**3):
         0.051799    0.145328    0.095087
         0.145328   -0.208563    0.042707
         0.095087    0.042707   -0.245514

siesta: Pressure (static):        214.84037323  kBar

siesta: Stress tensor (total) (eV/Ang**3):
         0.051799    0.145328    0.095087
         0.145328   -0.208563    0.042707
         0.095087    0.042707   -0.245514

siesta: Pressure (total):        214.84037323  kBar

                     ====================================
                        Begin CG opt. move =      5
                     ====================================

outcoor: Atomic coordinates (fractional):                   
   -0.00000000   -0.00000000   -0.00000000   1       1  Mg
    0.50000000    0.50000000    0.50000000   1       2  Mg
    0.25000869    0.25000489    0.24999144   2       3  C
   -0.25000869   -0.25000489   -0.24999144   2       4  C
    0.54920522   -0.04921343    0.24999103   3       5  O
    0.25000055    0.54920507   -0.04920660   3       6  O
   -0.04921477    0.25000835    0.54922624   3       7  O
   -0.54920522    0.04921343   -0.24999103   3       8  O
   -0.25000055   -0.54920507    0.04920660   3       9  O
    0.04921477   -0.25000835   -0.54922624   3      10  O
 Kpoints in:           12 . Kpoints trimmed:           12

siesta: k-grid: Number of k-points = 12
siesta: k-points from cutoff
siesta: k-cutoff (effective) =     5.162 Ang
siesta: k-point supercell and displacements
siesta: k-grid:     0     3    -3      0.500
siesta: k-grid:     3     0    -3      0.000
siesta: k-grid:     0     2     0      0.000

superc: Internal auxiliary supercell:     5 x     5 x     5  =     125
superc: Number of atoms, orbitals, and projectors:   1250   4250  10000

outcell: Unit cell vectors (Ang):
        5.160642   -0.092828   -0.060709
        3.371967    3.907757   -0.060695
        3.372006    1.507637    3.605761

outcell: Cell vector modules (Ang)   :    5.161834    5.161822    5.161870
outcell: Cell angles (23,13,12) (deg):     50.2352     50.2355     50.2362
outcell: Cell volume (Ang**3)        :     74.8269
<dSpData1D:S at geom step 5
  <sparsity:sparsity for geom step 5
    nrows_g=34 nrows=34 sparsity=13.4343 nnzs=15530, refcount: 7>
  <dData1D:(new from dSpData1D) n=15530, refcount: 1>
refcount: 1>
new_DM -- step:     6
Re-using DM from previous geometries...
Number of DMs in history: 1
 DM extrapolation coefficients: 
1   1.00000
New DM after history re-use:
<dSpData2D:SpM extrapolated using coords
  <sparsity:sparsity for geom step 5
    nrows_g=34 nrows=34 sparsity=13.4343 nnzs=15530, refcount: 9>
  <dData2D:(temp array for extrapolation) n=15530 m=1, refcount: 1>
refcount: 1>
No. of atoms with KB's overlaping orbs in proc 0. Max # of overlaps:     141     117

InitMesh: MESH = 20 x 20 x 20 = 8000
InitMesh: Mesh cutoff (required, used) =    50.000    54.611 Ry
New grid distribution [1]: sub = 2

        iscf     Eharris(eV)        E_KS(eV)     FreeEng(eV)     dDmax    Ef(eV) dHmax(eV)
   scf:    1    -2963.255288    -2963.839939    -2963.839939  0.338767 -4.062150  0.104222
   scf:    2    -2963.841325    -2963.840727    -2963.840727  0.006013 -3.963756  0.018432
   scf:    3    -2963.840789    -2963.840761    -2963.840761  0.000910 -3.977902  0.001574
   scf:    4    -2963.840762    -2963.840762    -2963.840762  0.000062 -3.977955  0.000737

SCF Convergence by DM+H criterion
max |DM_out - DM_in|         :     0.0000623341
max |H_out - H_in|      (eV) :     0.0007372772
SCF cycle converged after 4 iterations

Using DM_out to compute the final energy and forces
No. of atoms with KB's overlaping orbs in proc 0. Max # of overlaps:     141     117

siesta: E_KS(eV) =            -2963.8408

siesta: Atomic forces (eV/Ang):
     1   -0.000000    0.000000    0.000000
     2   -0.000000    0.000000   -0.000000
     3   -0.003658    0.001228    0.009625
     4    0.003658   -0.001228   -0.009625
     5    1.843881   -4.126526    0.002112
     6   -0.000626    2.478873   -3.784425
     7   -1.836068    1.642869    3.765100
     8   -1.843881    4.126526   -0.002112
     9    0.000626   -2.478873    3.784425
    10    1.836068   -1.642869   -3.765100
----------------------------------------
   Tot   -0.000000   -0.000000   -0.000000
----------------------------------------
   Max    4.126526
   Res    2.018928    sqrt( Sum f_i^2 / 3N )
----------------------------------------
   Max    4.126526    constrained

Stress tensor Voigt[x,y,z,yz,xz,xy] (kbar):      -48.80     -419.82     -472.32       60.94      135.41      206.98
(Free)E + p*V (eV/cell)    -2949.1924
Target enthalpy (eV/cell)    -2917.1375

siesta: Stress tensor (static) (eV/Ang**3):
        -0.030460    0.129186    0.084517
         0.129186   -0.262030    0.038034
         0.084517    0.038034   -0.294799

siesta: Pressure (static):        313.64737027  kBar

siesta: Stress tensor (total) (eV/Ang**3):
        -0.030460    0.129186    0.084517
         0.129186   -0.262030    0.038034
         0.084517    0.038034   -0.294799

siesta: Pressure (total):        313.64737027  kBar

outcoor: Final (unrelaxed) atomic coordinates (fractional): 
   -0.00000000   -0.00000000   -0.00000000   1       1  Mg
    0.50000000    0.50000000    0.50000000   1       2  Mg
    0.25000869    0.25000489    0.24999144   2       3  C
   -0.25000869   -0.25000489   -0.24999144   2       4  C
    0.54920522   -0.04921343    0.24999103   3       5  O
    0.25000055    0.54920507   -0.04920660   3       6  O
   -0.04921477    0.25000835    0.54922624   3       7  O
   -0.54920522    0.04921343   -0.24999103   3       8  O
   -0.25000055   -0.54920507    0.04920660   3       9  O
    0.04921477   -0.25000835   -0.54922624   3      10  O

outcell: Unit cell vectors (Ang):
        5.160642   -0.092828   -0.060709
        3.371967    3.907757   -0.060695
        3.372006    1.507637    3.605761

outcell: Cell vector modules (Ang)   :    5.161834    5.161822    5.161870
outcell: Cell angles (23,13,12) (deg):     50.2352     50.2355     50.2362
outcell: Cell volume (Ang**3)        :     74.8269

siesta: Program's energy decomposition (eV):
siesta: Ebs     =      -688.201938
siesta: Eions   =      5249.502762
siesta: Ena     =      1121.961806
siesta: Ekin    =      2289.453296
siesta: Enl     =      -367.197550
siesta: Eso     =         0.000000
siesta: Edftu   =         0.000000
siesta: DEna    =       -57.268285
siesta: DUscf   =         7.518815
siesta: DUext   =         0.000000
siesta: Ex      =      -631.210515
siesta: Ec      =       -77.595567
siesta: Exc     =      -708.806082
siesta: EbV     =         0.000000
siesta: eta*DQ  =         0.000000
siesta: Emadel  =         0.000000
siesta: Emeta   =         0.000000
siesta: Emolmec =         0.000000
siesta: Ekinion =         0.000000
siesta: Eharris =     -2963.840762
siesta: Etot    =     -2963.840762
siesta: FreeEng =     -2963.840762

siesta: Final energy (eV):
siesta:  Band Struct. =    -688.201938
siesta:       Kinetic =    2289.453296
siesta:       Hartree =     824.130113
siesta:         Edftu =       0.000000
siesta:       Eso     =       0.000000
siesta:    Ext. field =       0.000000
siesta:         Exch. =    -631.210515
siesta:         Corr. =     -77.595567
siesta:     Bulk bias =       0.000000
siesta:   Exch.-corr. =    -708.806082
siesta:  Ion-electron =   -3697.037618
siesta:       Ion-ion =   -1671.580471
siesta:       Ekinion =       0.000000
siesta: D3 dispersion =       0.000000
siesta:         Total =   -2963.840762
siesta:         Fermi =      -3.977955

siesta: Atomic forces (eV/Ang):
siesta:      1   -0.000000    0.000000    0.000000
siesta:      2   -0.000000    0.000000   -0.000000
siesta:      3   -0.003658    0.001228    0.009625
siesta:      4    0.003658   -0.001228   -0.009625
siesta:      5    1.843881   -4.126526    0.002112
siesta:      6   -0.000626    2.478873   -3.784425
siesta:      7   -1.836068    1.642869    3.765100
siesta:      8   -1.843881    4.126526   -0.002112
siesta:      9    0.000626   -2.478873    3.784425
siesta:     10    1.836068   -1.642869   -3.765100
siesta: ----------------------------------------
siesta:    Tot   -0.000000   -0.000000   -0.000000

siesta: Stress tensor (static) (eV/Ang**3):
siesta:    -0.030460    0.129186    0.084517
siesta:     0.129186   -0.262030    0.038034
siesta:     0.084517    0.038034   -0.294799

siesta: Constrained stress tensor (static) (eV/Ang**3):
siesta:    -0.030460    0.129186    0.084517
siesta:     0.129186   -0.262030    0.038034
siesta:     0.084517    0.038034   -0.294799

siesta: Cell volume =         74.826932 Ang**3

siesta: Pressure (static):
siesta:                Solid            Molecule  Units
siesta:           0.00213213          0.00040903  Ry/Bohr**3
siesta:           0.19576329          0.03755561  eV/Ang**3
siesta:         313.64737027         60.17072620  kBar
(Free)E+ p_basis*V_orbitals  =       -2962.287527
(Free)Eharris+ p_basis*V_orbitals  =       -2962.287528

cite: Please see "cg_vc.bib" for an exhaustive BiBTeX file.
cite: Please clearly indicate Siesta version in published work: 5.0.0-alpha-123-gfb8fd7d02
cite: This calculation has made use of the following articles
cite: which are encouraged to be cited in a published work.
        Primary SIESTA paper
          DOI: www.doi.org/10.1088/0953-8984/14/11/302


timer: Elapsed wall time (sec) =       1.964
timer: CPU execution times (sec):

Routine            Calls   Time/call    Tot.time        %
siesta                 1       1.964       1.964   100.00
Setup                  1       0.093       0.093     4.74
bands                  1       0.000       0.000     0.00
KSV_init               1       0.000       0.000     0.00
IterGeom               6       0.312       1.870    95.23
geom_init              6       0.131       0.788    40.14
state_init             6       0.050       0.302    15.37
hsparse                6       0.006       0.035     1.76
overlap                6       0.002       0.014     0.73
Setup_H0               6       0.072       0.432    22.01
naefs                 12       0.000       0.004     0.21
MolMec                12       0.000       0.000     0.00
kinefsm               12       0.002       0.020     1.00
nlefsm                12       0.022       0.261    13.31
DHSCF_Init             6       0.042       0.252    12.82
DHSCF1                 6       0.004       0.024     1.23
INITMESH               6       0.000       0.000     0.00
DHSCF2                 6       0.038       0.228    11.59
REMESH                 6       0.007       0.043     2.20
REORD                152       0.000       0.002     0.08
PHION                  6       0.022       0.134     6.80
COMM_BSC             226       0.000       0.001     0.08
POISON                58       0.000       0.010     0.53
fft                  116       0.000       0.007     0.34
setup_H               46       0.008       0.389    19.80
DHSCF                 52       0.012       0.643    32.77
DHSCF3                52       0.008       0.436    22.19
rhoofd                52       0.004       0.209    10.63
XC                    52       0.001       0.046     2.37
GXC-CellXC            52       0.001       0.046     2.33
gridxc@cellXC         52       0.001       0.046     2.32
vmat                  52       0.003       0.166     8.44
IterSCF               40       0.018       0.710    36.18
compute_dm            40       0.009       0.368    18.76
diagon                40       0.009       0.367    18.71
c-eigval             480       0.000       0.096     4.91
c-buildHS            480       0.000       0.064     3.25
cdiag                960       0.000       0.097     4.95
cdiag1               960       0.000       0.004     0.22
cdiag2               960       0.000       0.018     0.94
cdiag3               960       0.000       0.068     3.45
c-eigvec             480       0.000       0.129     6.55
cdiag4               480       0.000       0.003     0.15
c-buildD             480       0.000       0.141     7.19
MIXER                 34       0.000       0.002     0.09
PostSCF                6       0.062       0.370    18.83
DHSCF4                 6       0.035       0.208    10.58
dfscf                  6       0.025       0.149     7.60
overfsm                6       0.001       0.006     0.30
state_analysis         6       0.000       0.001     0.04
siesta_move            6       0.000       0.000     0.02
Analysis               1       0.001       0.001     0.03
optical                1       0.000       0.000     0.00
  

>> End of run:  28-SEP-2023  15:37:12
Job completed
