Siesta Version  : 5.0.0-alpha-123-gfb8fd7d02
Architecture    : ----
Compiler version: GNU-11.4.0
Compiler flags  : -fallow-argument-mismatch;-O3 -march=native
PP flags        : ----
Libraries       : ----
Parallelisations: none
GEMM3M support
NetCDF support
NetCDF-4 support
Lua support

Runtime information:
* Directory : /home/fnpedron/Siesta/siesta-dev/Tests/08.GeometryOptimization/work/fire
* Running in serial mode.
>> Start of run:  28-SEP-2023  15:37:18

                           *********************** 
                           *  WELCOME TO SIESTA  * 
                           *********************** 

reinit: Reading from standard input
reinit: Dumping input in INPUT_TMP.32284
************************** Dump of input data file ****************************
%include ../../basejob.fdf
SystemLabel      fire
MD.TypeOfRun     fire
MD.FIRE.TimeStep 0.3 fs
MD.FIRE.Mass     1.0
MD.FIRE.Nmin       5
************************** End of input data file *****************************

reinit: -----------------------------------------------------------------------
reinit: System Name: MgCO3
reinit: -----------------------------------------------------------------------
reinit: System Label: fire
reinit: -----------------------------------------------------------------------

initatom: Reading input for the pseudopotentials and atomic orbitals ----------
Species number:   1 Atomic number:   12 Label: Mg
Species number:   2 Atomic number:    6 Label: C
Species number:   3 Atomic number:    8 Label: O


---- Processing specs for species: Mg
Ground state valence configuration:   3s02
Reading pseudopotential information in formatted form from:
  /home/fnpedron/Siesta/siesta-dev/Tests/Pseudos/Mg.psf

---- Processing specs for species: C
Ground state valence configuration:   2s02  2p02
Reading pseudopotential information in formatted form from:
  /home/fnpedron/Siesta/siesta-dev/Tests/Pseudos/C.psf

---- Processing specs for species: O
Ground state valence configuration:   2s02  2p04
Reading pseudopotential information in formatted form from:
  /home/fnpedron/Siesta/siesta-dev/Tests/Pseudos/O.psf

---- Pseudopotential check for Mg

Pseudized shells:
3s( 2.00) rc: 2.59
3p( 0.00) rc: 2.59
3d( 0.00) rc: 2.59
4f( 0.00) rc: 2.59
Valence configuration for ps generation: (assumed as above)

---- Pseudopotential check for C 

Pseudized shells:
2s( 2.00) rc: 1.49
2p( 2.00) rc: 1.52
3d( 0.00) rc: 1.58
Valence configuration for ps generation: (assumed as above)

---- Pseudopotential check for O 

Pseudized shells:
2s( 2.00) rc: 1.14
2p( 4.00) rc: 1.14
3d( 0.00) rc: 1.14
4f( 0.00) rc: 1.14
Valence configuration for ps generation: (assumed as above)
For Mg, standard SIESTA heuristics set lmxkb to 1
 (one more than the basis l, including polarization orbitals).
Use PS.lmax or PS.KBprojectors blocks to override.
For C, standard SIESTA heuristics set lmxkb to 2
 (one more than the basis l, including polarization orbitals).
Use PS.lmax or PS.KBprojectors blocks to override.
For O, standard SIESTA heuristics set lmxkb to 2
 (one more than the basis l, including polarization orbitals).
Use PS.lmax or PS.KBprojectors blocks to override.

<basis_specs>
===============================================================================
Mg                   Z=  12    Mass=  24.305        Charge= 0.17977+309
Lmxo=0 Lmxkb= 1    BasisType=split      Semic=F
L=0  Nsemic=0  Cnfigmx=3
          i=1  nzeta=1  polorb=0  (3s)
            splnorm:   0.15000    
               vcte:    40.000    
               rinn:  -0.90000    
               qcoe:    0.0000    
               qyuk:    0.0000    
               qwid:   0.10000E-01
                rcs:    0.0000    
            lambdas:    1.0000    
-------------------------------------------------------------------------------
L=0  Nkbl=1  erefs: 0.17977+309
L=1  Nkbl=1  erefs: 0.17977+309
===============================================================================
</basis_specs>

Using PAO.SplitTailNorm
atom: Called for Mg                    (Z =  12)
Maximum radius (at nrval) set to   50.00000 8518

read_vps: Pseudopotential generation method:
read_vps: ATM3      Troullier-Martins                       
Valence charge in pseudo generation:    2.00000

xc_check: Exchange-correlation functional:
xc_check: Ceperley-Alder
V l=0 = -2*Zval/r beyond r=  3.6077
V l=1 = -2*Zval/r beyond r=  3.6077
All V_l potentials equal beyond r=  2.5675
This should be close to max(r_c) in ps generation
All pots = -2*Zval/r beyond r=  3.6077
Using large-core scheme (fit) for Vlocal

atom: Estimated core radius    3.60767

atom: Including non-local core corrections could be a good idea
Fit of Vlocal with continuous 2nd derivative
Fitting vlocal at       2.5753
Choosing vlocal chloc cutoff:***  3.897234
qtot up to nchloc:    2.00021543
atom: Maximum radius for chlocal:    3.89723
atom: Maximum radius for r*vlocal+2*Zval:    3.89723

KBgen: Kleinman-Bylander projectors: 
GHOST: No ghost state for L =  0
   l= 0   rc=  2.567525   el= -0.351328   Ekb=  2.696148   kbcos=  0.292957
GHOST: No ghost state for L =  1
   l= 1   rc=  2.590828   el= -0.101748   Ekb=  1.049266   kbcos=  0.260113

KBgen: Total number of Kleinman-Bylander projectors:   4
atom: -------------------------------------------------------------------------

atom: SANKEY-TYPE ORBITALS:

SPLIT: Orbitals with angular momentum L= 0

SPLIT: Basis orbitals for state 3s

SPLIT: PAO cut-off radius determined from an
SPLIT: energy shift=  0.010000 Ry
Split based on tail norm

   izeta = 1
                 lambda =    1.000000
                     rc =    7.238756
                 energy =   -0.339633
                kinetic =    0.272466
    potential(screened) =   -0.612099
       potential(ionic) =   -1.372639
atom: Total number of Sankey-type orbitals:  1

atm_pop: Valence configuration (for local Pseudopot. screening):
 3s( 2.00)                                                            
Vna: chval, zval:    2.00000   2.00000

Vna:  Cut-off radius for the neutral-atom potential:   7.238756

atom: _________________________________________________________________________

<basis_specs>
===============================================================================
C                    Z=   6    Mass=  12.011        Charge= 0.17977+309
Lmxo=1 Lmxkb= 2    BasisType=split      Semic=F
L=0  Nsemic=0  Cnfigmx=2
          i=1  nzeta=1  polorb=0  (2s)
            splnorm:   0.15000    
               vcte:    40.000    
               rinn:  -0.90000    
               qcoe:    0.0000    
               qyuk:    0.0000    
               qwid:   0.10000E-01
                rcs:    0.0000    
            lambdas:    1.0000    
L=1  Nsemic=0  Cnfigmx=2
          i=1  nzeta=1  polorb=0  (2p)
            splnorm:   0.15000    
               vcte:    40.000    
               rinn:  -0.90000    
               qcoe:    0.0000    
               qyuk:    0.0000    
               qwid:   0.10000E-01
                rcs:    0.0000    
            lambdas:    1.0000    
-------------------------------------------------------------------------------
L=0  Nkbl=1  erefs: 0.17977+309
L=1  Nkbl=1  erefs: 0.17977+309
L=2  Nkbl=1  erefs: 0.17977+309
===============================================================================
</basis_specs>

Using PAO.SplitTailNorm
atom: Called for C                     (Z =   6)
Maximum radius (at nrval) set to   50.00000 8518

read_vps: Pseudopotential generation method:
read_vps: ATM3      Troullier-Martins                       
Valence charge in pseudo generation:    4.00000

xc_check: Exchange-correlation functional:
xc_check: Ceperley-Alder
V l=0 = -2*Zval/r beyond r=  1.4801
V l=1 = -2*Zval/r beyond r=  1.5087
V l=2 = -2*Zval/r beyond r=  1.5628
All V_l potentials equal beyond r=  1.5612
This should be close to max(r_c) in ps generation
All pots = -2*Zval/r beyond r=  1.5628
Using small-core scheme (local charge) for Vlocal

VLOCAL_FROM_CHLOCAL: 99.0% of the norm of Vloc inside     17.810 Ry
VLOCAL_FROM_CHLOCAL: 99.9% of the norm of Vloc inside     40.589 Ry
atom: Maximum radius for chlocal:    1.86354
atom: Maximum radius for r*vlocal+2*Zval:    1.70915

KBgen: Kleinman-Bylander projectors: 
GHOST: No ghost state for L =  0
   l= 0   rc=  1.745634   el= -1.001947   Ekb=  5.181804   kbcos=  0.300616
GHOST: No ghost state for L =  1
   l= 1   rc=  1.745634   el= -0.398598   Ekb= -4.328614   kbcos= -0.367151
GHOST: No ghost state for L =  2
   l= 2   rc=  1.934160   el=  0.013259   Ekb= -1.016084   kbcos= -0.010830

KBgen: Total number of Kleinman-Bylander projectors:   9
atom: -------------------------------------------------------------------------

atom: SANKEY-TYPE ORBITALS:

SPLIT: Orbitals with angular momentum L= 0

SPLIT: Basis orbitals for state 2s

SPLIT: PAO cut-off radius determined from an
SPLIT: energy shift=  0.010000 Ry
Split based on tail norm

   izeta = 1
                 lambda =    1.000000
                     rc =    4.511437
                 energy =   -0.990638
                kinetic =    0.865864
    potential(screened) =   -1.856502
       potential(ionic) =   -5.451831

SPLIT: Orbitals with angular momentum L= 1

SPLIT: Basis orbitals for state 2p

SPLIT: PAO cut-off radius determined from an
SPLIT: energy shift=  0.010000 Ry
Split based on tail norm

   izeta = 1
                 lambda =    1.000000
                     rc =    5.413980
                 energy =   -0.387425
                kinetic =    2.474707
    potential(screened) =   -2.862132
       potential(ionic) =   -6.338849
atom: Total number of Sankey-type orbitals:  4

atm_pop: Valence configuration (for local Pseudopot. screening):
 2s( 2.00)                                                            
 2p( 2.00)                                                            
Vna: chval, zval:    4.00000   4.00000

Vna:  Cut-off radius for the neutral-atom potential:   5.413980

atom: _________________________________________________________________________

<basis_specs>
===============================================================================
O                    Z=   8    Mass=  15.999        Charge= 0.17977+309
Lmxo=1 Lmxkb= 2    BasisType=split      Semic=F
L=0  Nsemic=0  Cnfigmx=2
          i=1  nzeta=1  polorb=0  (2s)
            splnorm:   0.15000    
               vcte:    40.000    
               rinn:  -0.90000    
               qcoe:    0.0000    
               qyuk:    0.0000    
               qwid:   0.10000E-01
                rcs:    0.0000    
            lambdas:    1.0000    
L=1  Nsemic=0  Cnfigmx=2
          i=1  nzeta=1  polorb=0  (2p)
            splnorm:   0.15000    
               vcte:    40.000    
               rinn:  -0.90000    
               qcoe:    0.0000    
               qyuk:    0.0000    
               qwid:   0.10000E-01
                rcs:    0.0000    
            lambdas:    1.0000    
-------------------------------------------------------------------------------
L=0  Nkbl=1  erefs: 0.17977+309
L=1  Nkbl=1  erefs: 0.17977+309
L=2  Nkbl=1  erefs: 0.17977+309
===============================================================================
</basis_specs>

Using PAO.SplitTailNorm
atom: Called for O                     (Z =   8)
Maximum radius (at nrval) set to   50.00000 8518

read_vps: Pseudopotential generation method:
read_vps: ATM3      Troullier-Martins                       
Valence charge in pseudo generation:    6.00000

xc_check: Exchange-correlation functional:
xc_check: Ceperley-Alder
V l=0 = -2*Zval/r beyond r=  1.1366
V l=1 = -2*Zval/r beyond r=  1.1332
V l=2 = -2*Zval/r beyond r=  1.1298
All V_l potentials equal beyond r=  1.1355
This should be close to max(r_c) in ps generation
All pots = -2*Zval/r beyond r=  1.1366
Using small-core scheme (local charge) for Vlocal

VLOCAL_FROM_CHLOCAL: 99.0% of the norm of Vloc inside     33.667 Ry
VLOCAL_FROM_CHLOCAL: 99.9% of the norm of Vloc inside     76.727 Ry
atom: Maximum radius for chlocal:    1.37241
atom: Maximum radius for r*vlocal+2*Zval:    1.25469

KBgen: Kleinman-Bylander projectors: 
GHOST: No ghost state for L =  0
   l= 0   rc=  1.293209   el= -1.742414   Ekb=  9.076872   kbcos=  0.325320
GHOST: No ghost state for L =  1
   l= 1   rc=  1.284119   el= -0.676589   Ekb= -8.194485   kbcos= -0.396010
GHOST: No ghost state for L =  2
   l= 2   rc=  1.433152   el=  0.013307   Ekb= -2.071665   kbcos= -0.003690

KBgen: Total number of Kleinman-Bylander projectors:   9
atom: -------------------------------------------------------------------------

atom: SANKEY-TYPE ORBITALS:

SPLIT: Orbitals with angular momentum L= 0

SPLIT: Basis orbitals for state 2s

SPLIT: PAO cut-off radius determined from an
SPLIT: energy shift=  0.010000 Ry
Split based on tail norm

   izeta = 1
                 lambda =    1.000000
                     rc =    3.560943
                 energy =   -1.731321
                kinetic =    1.587329
    potential(screened) =   -3.318651
       potential(ionic) =  -11.260325

SPLIT: Orbitals with angular momentum L= 1

SPLIT: Basis orbitals for state 2p

SPLIT: PAO cut-off radius determined from an
SPLIT: energy shift=  0.010000 Ry
Split based on tail norm

   izeta = 1
                 lambda =    1.000000
                     rc =    4.290924
                 energy =   -0.665565
                kinetic =    4.934810
    potential(screened) =   -5.600376
       potential(ionic) =  -13.346429
atom: Total number of Sankey-type orbitals:  4

atm_pop: Valence configuration (for local Pseudopot. screening):
 2s( 2.00)                                                            
 2p( 4.00)                                                            
Vna: chval, zval:    6.00000   6.00000

Vna:  Cut-off radius for the neutral-atom potential:   4.290924

atom: _________________________________________________________________________

prinput: Basis input 

PAO.BasisType split     

%block ChemicalSpeciesLabel
    1   12 Mg                      # Species index, atomic number, species label
    2    6 C                       # Species index, atomic number, species label
    3    8 O                       # Species index, atomic number, species label
%endblock ChemicalSpeciesLabel

%block PAO.Basis                 # Define Basis set
# WARNING: This information might be incomplete!
Mg                    1                    # Species label, number of l-shells
 n=3   0   1                         # n, l, Nzeta 
   7.239   
   1.000   
C                     2                    # Species label, number of l-shells
 n=2   0   1                         # n, l, Nzeta 
   4.511   
   1.000   
 n=2   1   1                         # n, l, Nzeta 
   5.414   
   1.000   
O                     2                    # Species label, number of l-shells
 n=2   0   1                         # n, l, Nzeta 
   3.561   
   1.000   
 n=2   1   1                         # n, l, Nzeta 
   4.291   
   1.000   
%endblock PAO.Basis

prinput: ----------------------------------------------------------------------

Dumping basis to NetCDF file Mg.ion.nc
Dumping basis to NetCDF file C.ion.nc
Dumping basis to NetCDF file O.ion.nc
coor:   Atomic-coordinates input format  =     Fractional

siesta: Atomic coordinates (Bohr) and species
siesta:      0.00000   0.00000   0.00000  1        1
siesta:     12.51929   5.59740   3.66414  1        2
siesta:      6.25965   2.79870   1.83207  2        3
siesta:     -6.25965  -2.79870  -1.83207  2        4
siesta:      7.25136   0.58061   1.83207  3        5
siesta:      6.25965   4.12944  -0.20079  3        6
siesta:      5.26793   3.68605   3.86493  3        7
siesta:     -7.25136  -0.58061  -1.83207  3        8
siesta:     -6.25965  -4.12944   0.20079  3        9
siesta:     -5.26793  -3.68605  -3.86493  3       10

siesta: System type = bulk      

initatomlists: Number of atoms, orbitals, and projectors:     10    34    80

siesta: ******************** Simulation parameters ****************************
siesta:
siesta: The following are some of the parameters of the simulation.
siesta: A complete list of the parameters used, including default values,
siesta: can be found in file out.fdf
siesta:
redata: Spin configuration                          = none
redata: Number of spin components                   = 1
redata: Time-Reversal Symmetry                      = T
redata: Spin spiral                                 = F
redata: Long output                                 =   F
redata: Number of Atomic Species                    =        3
redata: Charge density info will appear in .RHO file
redata: Write Mulliken Pop.                         = NO
redata: Matel table size (NRTAB)                    =     1024
redata: Mesh Cutoff                                 =    50.0000 Ry
redata: Net charge of the system                    =     0.0000 |e|
redata: Min. number of SCF Iter                     =        0
redata: Max. number of SCF Iter                     =     1000
redata: SCF convergence failure will abort job
redata: SCF mix quantity                            = Hamiltonian
redata: Mix DM or H after convergence               =   F
redata: Recompute H after scf cycle                 =   F
redata: Mix DM in first SCF step                    =   T
redata: Write Pulay info on disk                    =   F
redata: New DM Occupancy tolerance                  = 0.000000000001
redata: No kicks to SCF
redata: DM Mixing Weight for Kicks                  =     0.5000
redata: Require Harris convergence for SCF          =   F
redata: Harris energy tolerance for SCF             =     0.000100 eV
redata: Require DM convergence for SCF              =   T
redata: DM tolerance for SCF                        =     0.000100
redata: Require EDM convergence for SCF             =   F
redata: EDM tolerance for SCF                       =     0.001000 eV
redata: Require H convergence for SCF               =   T
redata: Hamiltonian tolerance for SCF               =     0.001000 eV
redata: Require (free) Energy convergence for SCF   =   F
redata: (free) Energy tolerance for SCF             =     0.000100 eV
redata: Using DFT-D3 dispersion                     =   F
redata: Using Saved Data (generic)                  =   F
redata: Use continuation files for DM               =   F
redata: Neglect nonoverlap interactions             =   F
redata: Method of Calculation                       = Diagonalization
redata: Electronic Temperature                      =   299.9863 K
redata: Fix the spin of the system                  =   F
redata: Max. number of TDED Iter                    =        1
redata: Number of TDED substeps                     =        3
redata: Dynamics option                             = FIRE coord. optimization
redata: Variable cell                               =   F
redata: Use continuation files for CG               =   F
redata: Max atomic displ per move                   =     0.1000 Ang
redata: Maximum number of optimization moves        =        5
redata: Force tolerance                             =     0.0400 eV/Ang
mix.SCF: Pulay mixing                            = Pulay
mix.SCF:    Variant                              = stable
mix.SCF:    History steps                        = 2
mix.SCF:    Linear mixing weight                 =     0.250000
mix.SCF:    Mixing weight                        =     0.250000
mix.SCF:    SVD condition                        = 0.1000E-07
redata: Save all siesta data in one NC              =   F
redata: ***********************************************************************

%block SCF.Mixers
  Pulay
%endblock SCF.Mixers

%block SCF.Mixer.Pulay
  # Mixing method
  method pulay
  variant stable

  # Mixing options
  weight 0.2500
  weight.linear 0.2500
  history 2
%endblock SCF.Mixer.Pulay

DM_history_depth set to one: no extrapolation allowed by default for geometry relaxation
Size of DM history Fstack: 1
Total number of electrons:    48.000000
Total ionic charge:    48.000000
 Kpoints in:           12 . Kpoints trimmed:           12

siesta: k-grid: Number of k-points = 12
siesta: k-points from cutoff
siesta: k-cutoff (effective) =     5.678 Ang
siesta: k-point supercell and displacements
siesta: k-grid:    -3     0     3      0.500
siesta: k-grid:     0    -3     3      0.000
siesta: k-grid:     0     0     2      0.000

diag: Algorithm                                     = D&C
diag: Used triangular part                          = Lower
diag: Absolute tolerance                            =  0.100E-15
diag: Orthogonalization factor                      =  0.100E-05
diag: Memory factor                                 =  1.0000

superc: Internal auxiliary supercell:     5 x     5 x     5  =     125
superc: Number of atoms, orbitals, and projectors:   1250   4250  10000


ts: **************************************************************
ts: Save H and S matrices                           =    F
ts: Save DM and EDM matrices                        =    F
ts: Only save the overlap matrix S                  =    F
ts: **************************************************************

************************ Begin: TS CHECKS AND WARNINGS ************************
************************ End: TS CHECKS AND WARNINGS **************************


                     ====================================
                        Begin FIRE opt. move =      0
                     ====================================

outcoor: Atomic coordinates (fractional):                   
    0.00000000    0.00000000    0.00000000   1       1  Mg
    0.50000000    0.50000000    0.50000000   1       2  Mg
    0.25000000    0.25000000    0.25000000   2       3  C
   -0.25000000   -0.25000000   -0.25000000   2       4  C
    0.52740000   -0.02740000    0.25000000   3       5  O
    0.25000000    0.52740000   -0.02740000   3       6  O
   -0.02740000    0.25000000    0.52740000   3       7  O
   -0.52740000    0.02740000   -0.25000000   3       8  O
   -0.25000000   -0.52740000    0.02740000   3       9  O
    0.02740000   -0.25000000   -0.52740000   3      10  O

superc: Internal auxiliary supercell:     5 x     5 x     5  =     125
superc: Number of atoms, orbitals, and projectors:   1250   4250  10000

outcell: Unit cell vectors (Ang):
        5.677830    0.000000    0.000000
        3.786009    4.231299    0.000000
        3.786009    1.692731    3.877957

outcell: Cell vector modules (Ang)   :    5.677830    5.677830    5.677830
outcell: Cell angles (23,13,12) (deg):     48.1790     48.1790     48.1790
outcell: Cell volume (Ang**3)        :     93.1663
<dSpData1D:S at geom step 0
  <sparsity:sparsity for geom step 0
    nrows_g=34 nrows=34 sparsity=10.6834 nnzs=12350, refcount: 7>
  <dData1D:(new from dSpData1D) n=12350, refcount: 1>
refcount: 1>
new_DM -- step:     1
Initializing Density Matrix...
DM filled with atomic data:
<dSpData2D:DM initialized from atoms
  <sparsity:sparsity for geom step 0
    nrows_g=34 nrows=34 sparsity=10.6834 nnzs=12350, refcount: 8>
  <dData2D:DM n=12350 m=1, refcount: 1>
refcount: 1>
No. of atoms with KB's overlaping orbs in proc 0. Max # of overlaps:     129      93

InitMesh: MESH = 24 x 24 x 24 = 13824
InitMesh: Mesh cutoff (required, used) =    50.000    63.482 Ry
New grid distribution [1]: sub = 2

stepf: Fermi-Dirac step function

siesta: Program's energy decomposition (eV):
siesta: Ebs     =      -589.780073
siesta: Eions   =      5249.502762
siesta: Ena     =      1131.157040
siesta: Ekin    =      2359.424687
siesta: Enl     =      -400.615198
siesta: Eso     =         0.000000
siesta: Edftu   =         0.000000
siesta: DEna    =       -97.751840
siesta: DUscf   =        22.539196
siesta: DUext   =         0.000000
siesta: Ex      =      -640.394102
siesta: Ec      =       -77.786808
siesta: Exc     =      -718.180909
siesta: EbV     =         0.000000
siesta: eta*DQ  =         0.000000
siesta: Emadel  =         0.000000
siesta: Emeta   =         0.000000
siesta: Emolmec =         0.000000
siesta: Ekinion =         0.000000
siesta: Eharris =     -2902.075069
siesta: Etot    =     -2952.929787
siesta: FreeEng =     -2952.929787

        iscf     Eharris(eV)        E_KS(eV)     FreeEng(eV)     dDmax    Ef(eV) dHmax(eV)
   scf:    1    -2902.075069    -2952.929787    -2952.929787  1.801898 -3.702524  4.572038
timer: Routine,Calls,Time,% = IterSCF        1       0.018   5.58
   scf:    2    -2964.871605    -2959.585913    -2959.585913  0.187089 -3.854108  2.422891
   scf:    3    -2961.972495    -2961.352073    -2961.352073  0.188526 -3.834771  0.640200
   scf:    4    -2961.415956    -2961.385483    -2961.385483  0.009823 -3.733716  0.387105
   scf:    5    -2961.423991    -2961.407999    -2961.407999  0.020606 -3.555753  0.058666
   scf:    6    -2961.409162    -2961.408647    -2961.408647  0.002389 -3.550476  0.026282
   scf:    7    -2961.408991    -2961.408849    -2961.408849  0.002059 -3.550032  0.011932
   scf:    8    -2961.408855    -2961.408852    -2961.408852  0.000147 -3.552923  0.007826
   scf:    9    -2961.408854    -2961.408853    -2961.408853  0.000202 -3.559110  0.001972
   scf:   10    -2961.408854    -2961.408854    -2961.408854  0.000048 -3.559874  0.000948

SCF Convergence by DM+H criterion
max |DM_out - DM_in|         :     0.0000482637
max |H_out - H_in|      (eV) :     0.0009477601
SCF cycle converged after 10 iterations

Using DM_out to compute the final energy and forces
No. of atoms with KB's overlaping orbs in proc 0. Max # of overlaps:     129      93

siesta: E_KS(eV) =            -2961.4089

siesta: E_KS - E_eggbox =     -2961.4089

siesta: Atomic forces (eV/Ang):
     1   -0.000000   -0.000000   -0.000000
     2   -0.000000    0.000000    0.000000
     3    0.001422   -0.000199   -0.003353
     4   -0.001422    0.000199    0.003353
     5    3.569916   -7.986374   -0.001363
     6    0.000090    4.790229   -7.318174
     7   -3.571479    3.197462    7.322958
     8   -3.569916    7.986374    0.001363
     9   -0.000090   -4.790229    7.318174
    10    3.571479   -3.197462   -7.322958
----------------------------------------
   Tot    0.000000    0.000000   -0.000000
----------------------------------------
   Max    7.986374
   Res    3.912658    sqrt( Sum f_i^2 / 3N )
----------------------------------------
   Max    7.986374    constrained

Stress tensor Voigt[x,y,z,yz,xz,xy] (kbar):      129.20     -233.45     -285.13       59.22      132.55      202.68
(Free)E + p*V (eV/cell)    -2953.8616
Target enthalpy (eV/cell)    -2903.2590
FIRE: No of elements:     30

                     ====================================
                        Begin FIRE opt. move =      1
                     ====================================

outcoor: Atomic coordinates (fractional):                   
    0.00000000   -0.00000000   -0.00000000   1       1  Mg
    0.50000000    0.50000000    0.50000000   1       2  Mg
    0.25000058    0.25000028    0.24999920   2       3  C
   -0.25000058   -0.25000028   -0.24999920   2       4  C
    0.52914811   -0.02914799    0.24999967   3       5  O
    0.25000007    0.52914773   -0.02914781   3       6  O
   -0.02914894    0.25000022    0.52914895   3       7  O
   -0.52914811    0.02914799   -0.24999967   3       8  O
   -0.25000007   -0.52914773    0.02914781   3       9  O
    0.02914894   -0.25000022   -0.52914895   3      10  O

superc: Internal auxiliary supercell:     5 x     5 x     5  =     125
superc: Number of atoms, orbitals, and projectors:   1250   4250  10000

outcell: Unit cell vectors (Ang):
        5.677830    0.000000    0.000000
        3.786009    4.231299    0.000000
        3.786009    1.692731    3.877957

outcell: Cell vector modules (Ang)   :    5.677830    5.677830    5.677830
outcell: Cell angles (23,13,12) (deg):     48.1790     48.1790     48.1790
outcell: Cell volume (Ang**3)        :     93.1663
<dSpData1D:S at geom step 1
  <sparsity:sparsity for geom step 1
    nrows_g=34 nrows=34 sparsity=10.6834 nnzs=12350, refcount: 7>
  <dData1D:(new from dSpData1D) n=12350, refcount: 1>
refcount: 1>
new_DM -- step:     2
Re-using DM from previous geometries...
Number of DMs in history: 1
 DM extrapolation coefficients: 
1   1.00000
New DM after history re-use:
<dSpData2D:SpM extrapolated using coords
  <sparsity:sparsity for geom step 1
    nrows_g=34 nrows=34 sparsity=10.6834 nnzs=12350, refcount: 9>
  <dData2D:(temp array for extrapolation) n=12350 m=1, refcount: 1>
refcount: 1>
No. of atoms with KB's overlaping orbs in proc 0. Max # of overlaps:     129      93

InitMesh: MESH = 24 x 24 x 24 = 13824
InitMesh: Mesh cutoff (required, used) =    50.000    63.482 Ry
New grid distribution [1]: sub = 2

        iscf     Eharris(eV)        E_KS(eV)     FreeEng(eV)     dDmax    Ef(eV) dHmax(eV)
   scf:    1    -2962.422018    -2961.815349    -2961.815349  0.018957 -3.732663  0.134513
   scf:    2    -2961.802209    -2961.813361    -2961.813361  0.017106 -3.675723  0.154333
   scf:    3    -2961.820852    -2961.818494    -2961.818494  0.009488 -3.704276  0.007578
   scf:    4    -2961.818511    -2961.818503    -2961.818503  0.000118 -3.702670  0.004989
   scf:    5    -2961.818515    -2961.818510    -2961.818510  0.000248 -3.699448  0.000406
   scf:    6    -2961.818510    -2961.818510    -2961.818510  0.000009 -3.699482  0.000276

SCF Convergence by DM+H criterion
max |DM_out - DM_in|         :     0.0000089788
max |H_out - H_in|      (eV) :     0.0002756481
SCF cycle converged after 6 iterations

Using DM_out to compute the final energy and forces
No. of atoms with KB's overlaping orbs in proc 0. Max # of overlaps:     129      93

siesta: E_KS(eV) =            -2961.8185

siesta: Atomic forces (eV/Ang):
     1   -0.000000   -0.000000   -0.000000
     2   -0.000000    0.000000    0.000000
     3    0.001208   -0.000124   -0.002681
     4   -0.001208    0.000124    0.002681
     5    3.304842   -7.393419   -0.001304
     6    0.000069    4.434659   -6.774922
     7   -3.306205    2.960059    6.779105
     8   -3.304842    7.393419    0.001304
     9   -0.000069   -4.434659    6.774922
    10    3.306205   -2.960059   -6.779105
----------------------------------------
   Tot   -0.000000   -0.000000   -0.000000
----------------------------------------
   Max    7.393419
   Res    3.622151    sqrt( Sum f_i^2 / 3N )
----------------------------------------
   Max    7.393419    constrained

Stress tensor Voigt[x,y,z,yz,xz,xy] (kbar):      134.68     -202.31     -250.32       55.04      123.16      188.33
(Free)E + p*V (eV/cell)    -2955.6556
Target enthalpy (eV/cell)    -2903.6687

                     ====================================
                        Begin FIRE opt. move =      2
                     ====================================

outcoor: Atomic coordinates (fractional):                   
    0.00000000   -0.00000000   -0.00000000   1       1  Mg
    0.50000000    0.50000000    0.50000000   1       2  Mg
    0.25000220    0.25000105    0.24999698   2       3  C
   -0.25000220   -0.25000105   -0.24999698   2       4  C
    0.53426267   -0.03426216    0.24999871   3       5  O
    0.25000025    0.53426120   -0.03426149   3       6  O
   -0.03426587    0.25000086    0.53426591   3       7  O
   -0.53426267    0.03426216   -0.24999871   3       8  O
   -0.25000025   -0.53426120    0.03426149   3       9  O
    0.03426587   -0.25000086   -0.53426591   3      10  O

superc: Internal auxiliary supercell:     5 x     5 x     5  =     125
superc: Number of atoms, orbitals, and projectors:   1250   4250  10000

outcell: Unit cell vectors (Ang):
        5.677830    0.000000    0.000000
        3.786009    4.231299    0.000000
        3.786009    1.692731    3.877957

outcell: Cell vector modules (Ang)   :    5.677830    5.677830    5.677830
outcell: Cell angles (23,13,12) (deg):     48.1790     48.1790     48.1790
outcell: Cell volume (Ang**3)        :     93.1663
<dSpData1D:S at geom step 2
  <sparsity:sparsity for geom step 2
    nrows_g=34 nrows=34 sparsity=10.6834 nnzs=12350, refcount: 7>
  <dData1D:(new from dSpData1D) n=12350, refcount: 1>
refcount: 1>
new_DM -- step:     3
Re-using DM from previous geometries...
Number of DMs in history: 1
 DM extrapolation coefficients: 
1   1.00000
New DM after history re-use:
<dSpData2D:SpM extrapolated using coords
  <sparsity:sparsity for geom step 2
    nrows_g=34 nrows=34 sparsity=10.6834 nnzs=12350, refcount: 9>
  <dData2D:(temp array for extrapolation) n=12350 m=1, refcount: 1>
refcount: 1>
No. of atoms with KB's overlaping orbs in proc 0. Max # of overlaps:     129      93

InitMesh: MESH = 24 x 24 x 24 = 13824
InitMesh: Mesh cutoff (required, used) =    50.000    63.482 Ry
New grid distribution [1]: sub = 2

        iscf     Eharris(eV)        E_KS(eV)     FreeEng(eV)     dDmax    Ef(eV) dHmax(eV)
   scf:    1    -2964.439530    -2962.805400    -2962.805400  0.056519 -4.170575  0.415504
   scf:    2    -2962.653099    -2962.778126    -2962.778126  0.054887 -4.009737  0.511777
   scf:    3    -2962.859969    -2962.834937    -2962.834937  0.031391 -4.093479  0.022563
   scf:    4    -2962.835096    -2962.835019    -2962.835019  0.000365 -4.088686  0.014709
   scf:    5    -2962.835132    -2962.835084    -2962.835084  0.000768 -4.079035  0.001300
   scf:    6    -2962.835085    -2962.835084    -2962.835084  0.000036 -4.079104  0.000857

SCF Convergence by DM+H criterion
max |DM_out - DM_in|         :     0.0000359445
max |H_out - H_in|      (eV) :     0.0008567855
SCF cycle converged after 6 iterations

Using DM_out to compute the final energy and forces
No. of atoms with KB's overlaping orbs in proc 0. Max # of overlaps:     129      93

siesta: E_KS(eV) =            -2962.8351

siesta: Atomic forces (eV/Ang):
     1   -0.000000   -0.000000   -0.000000
     2   -0.000000    0.000000    0.000000
     3    0.000695    0.000062   -0.001056
     4   -0.000695   -0.000062    0.001056
     5    2.519540   -5.636645   -0.001174
     6    0.000003    3.381150   -5.165343
     7   -2.520325    2.256767    5.167833
     8   -2.519540    5.636645    0.001174
     9   -0.000003   -3.381150    5.165343
    10    2.520325   -2.256767   -5.167833
----------------------------------------
   Tot   -0.000000   -0.000000   -0.000000
----------------------------------------
   Max    5.636645
   Res    2.761453    sqrt( Sum f_i^2 / 3N )
----------------------------------------
   Max    5.636645    constrained

Stress tensor Voigt[x,y,z,yz,xz,xy] (kbar):      148.09     -119.98     -158.16       43.79       97.93      149.79
(Free)E + p*V (eV/cell)    -2960.3142
Target enthalpy (eV/cell)    -2904.6852

                     ====================================
                        Begin FIRE opt. move =      3
                     ====================================

outcoor: Atomic coordinates (fractional):                   
    0.00000000   -0.00000000   -0.00000000   1       1  Mg
    0.50000000    0.50000000    0.50000000   1       2  Mg
    0.25000440    0.25000213    0.24999402   2       3  C
   -0.25000440   -0.25000213   -0.24999402   2       4  C
    0.54222936   -0.04222820    0.24999713   3       5  O
    0.25000051    0.54222632   -0.04222693   3       6  O
   -0.04223608    0.25000198    0.54223611   3       7  O
   -0.54222936    0.04222820   -0.24999713   3       8  O
   -0.25000051   -0.54222632    0.04222693   3       9  O
    0.04223608   -0.25000198   -0.54223611   3      10  O

superc: Internal auxiliary supercell:     5 x     5 x     5  =     125
superc: Number of atoms, orbitals, and projectors:   1250   4250  10000

outcell: Unit cell vectors (Ang):
        5.677830    0.000000    0.000000
        3.786009    4.231299    0.000000
        3.786009    1.692731    3.877957

outcell: Cell vector modules (Ang)   :    5.677830    5.677830    5.677830
outcell: Cell angles (23,13,12) (deg):     48.1790     48.1790     48.1790
outcell: Cell volume (Ang**3)        :     93.1663
<dSpData1D:S at geom step 3
  <sparsity:sparsity for geom step 3
    nrows_g=34 nrows=34 sparsity=10.8702 nnzs=12566, refcount: 7>
  <dData1D:(new from dSpData1D) n=12566, refcount: 1>
refcount: 1>
new_DM -- step:     4
Re-using DM from previous geometries...
Number of DMs in history: 1
 DM extrapolation coefficients: 
1   1.00000
New DM after history re-use:
<dSpData2D:SpM extrapolated using coords
  <sparsity:sparsity for geom step 3
    nrows_g=34 nrows=34 sparsity=10.8702 nnzs=12566, refcount: 9>
  <dData2D:(temp array for extrapolation) n=12566 m=1, refcount: 1>
refcount: 1>
No. of atoms with KB's overlaping orbs in proc 0. Max # of overlaps:     135      93

InitMesh: MESH = 24 x 24 x 24 = 13824
InitMesh: Mesh cutoff (required, used) =    50.000    63.482 Ry
New grid distribution [1]: sub = 2

        iscf     Eharris(eV)        E_KS(eV)     FreeEng(eV)     dDmax    Ef(eV) dHmax(eV)
   scf:    1    -2965.987112    -2963.773097    -2963.773097  0.092628 -4.689826  0.714713
   scf:    2    -2963.179722    -2963.649993    -2963.649993  0.100273 -4.466370  0.979786
   scf:    3    -2963.948750    -2963.861756    -2963.861756  0.059928 -4.589251  0.036968
   scf:    4    -2963.862232    -2963.862002    -2963.862002  0.000645 -4.581596  0.025662
   scf:    5    -2963.862331    -2963.862192    -2963.862192  0.001312 -4.566158  0.002303
   scf:    6    -2963.862194    -2963.862193    -2963.862193  0.000086 -4.566159  0.001463
   scf:    7    -2963.862194    -2963.862193    -2963.862193  0.000067 -4.566384  0.000608

SCF Convergence by DM+H criterion
max |DM_out - DM_in|         :     0.0000669860
max |H_out - H_in|      (eV) :     0.0006079957
SCF cycle converged after 7 iterations

Using DM_out to compute the final energy and forces
No. of atoms with KB's overlaping orbs in proc 0. Max # of overlaps:     135      93

siesta: E_KS(eV) =            -2963.8622

siesta: Atomic forces (eV/Ang):
     1    0.000000   -0.000000   -0.000000
     2   -0.000000    0.000000    0.000000
     3    0.000201    0.000311    0.000536
     4   -0.000201   -0.000311   -0.000536
     5    1.267425   -2.835352   -0.001070
     6   -0.000111    1.700889   -2.598274
     7   -1.267454    1.135594    2.598942
     8   -1.267425    2.835352    0.001070
     9    0.000111   -1.700889    2.598274
    10    1.267454   -1.135594   -2.598942
----------------------------------------
   Tot   -0.000000   -0.000000   -0.000000
----------------------------------------
   Max    2.835352
   Res    1.389008    sqrt( Sum f_i^2 / 3N )
----------------------------------------
   Max    2.835352    constrained

Stress tensor Voigt[x,y,z,yz,xz,xy] (kbar):      165.70       -7.19      -31.79       28.26       63.10       96.58
(Free)E + p*V (eV/cell)    -2966.3185
Target enthalpy (eV/cell)    -2905.7123

                     ====================================
                        Begin FIRE opt. move =      4
                     ====================================

outcoor: Atomic coordinates (fractional):                   
    0.00000000   -0.00000000   -0.00000000   1       1  Mg
    0.50000000    0.50000000    0.50000000   1       2  Mg
    0.25000641    0.25000325    0.24999144   2       3  C
   -0.25000641   -0.25000325   -0.24999144   2       4  C
    0.55205067   -0.05204841    0.24999482   3       5  O
    0.25000071    0.55204573   -0.05204664   3       6  O
   -0.05206128    0.25000380    0.55206103   3       7  O
   -0.55205067    0.05204841   -0.24999482   3       8  O
   -0.25000071   -0.55204573    0.05204664   3       9  O
    0.05206128   -0.25000380   -0.55206103   3      10  O

superc: Internal auxiliary supercell:     5 x     5 x     5  =     125
superc: Number of atoms, orbitals, and projectors:   1250   4250  10000

outcell: Unit cell vectors (Ang):
        5.677830    0.000000    0.000000
        3.786009    4.231299    0.000000
        3.786009    1.692731    3.877957

outcell: Cell vector modules (Ang)   :    5.677830    5.677830    5.677830
outcell: Cell angles (23,13,12) (deg):     48.1790     48.1790     48.1790
outcell: Cell volume (Ang**3)        :     93.1663
<dSpData1D:S at geom step 4
  <sparsity:sparsity for geom step 4
    nrows_g=34 nrows=34 sparsity=10.3201 nnzs=11930, refcount: 7>
  <dData1D:(new from dSpData1D) n=11930, refcount: 1>
refcount: 1>
new_DM -- step:     5
Re-using DM from previous geometries...
Number of DMs in history: 1
 DM extrapolation coefficients: 
1   1.00000
New DM after history re-use:
<dSpData2D:SpM extrapolated using coords
  <sparsity:sparsity for geom step 4
    nrows_g=34 nrows=34 sparsity=10.3201 nnzs=11930, refcount: 9>
  <dData2D:(temp array for extrapolation) n=11930 m=1, refcount: 1>
refcount: 1>
No. of atoms with KB's overlaping orbs in proc 0. Max # of overlaps:     135      87

InitMesh: MESH = 24 x 24 x 24 = 13824
InitMesh: Mesh cutoff (required, used) =    50.000    63.482 Ry
New grid distribution [1]: sub = 2

        iscf     Eharris(eV)        E_KS(eV)     FreeEng(eV)     dDmax    Ef(eV) dHmax(eV)
   scf:    1    -2966.291594    -2964.076766    -2964.076766  0.124429 -5.060955  1.013383
   scf:    2    -2962.446978    -2963.700346    -2963.700346  0.153292 -4.877656  1.587781
   scf:    3    -2964.472429    -2964.260202    -2964.260202  0.096000 -4.984942  0.052604
   scf:    4    -2964.261190    -2964.260716    -2964.260716  0.001054 -4.975865  0.037318
   scf:    5    -2964.261375    -2964.261093    -2964.261093  0.001792 -4.958011  0.004523
   scf:    6    -2964.261103    -2964.261099    -2964.261099  0.000187 -4.957670  0.002075
   scf:    7    -2964.261100    -2964.261099    -2964.261099  0.000097 -4.957850  0.001076
   scf:    8    -2964.261099    -2964.261099    -2964.261099  0.000017 -4.958116  0.000702

SCF Convergence by DM+H criterion
max |DM_out - DM_in|         :     0.0000174269
max |H_out - H_in|      (eV) :     0.0007021685
SCF cycle converged after 8 iterations

Using DM_out to compute the final energy and forces
No. of atoms with KB's overlaping orbs in proc 0. Max # of overlaps:     135      87

siesta: E_KS(eV) =            -2964.2611

siesta: Atomic forces (eV/Ang):
     1    0.000000   -0.000000   -0.000000
     2   -0.000000    0.000000    0.000000
     3   -0.000037    0.000581    0.001306
     4    0.000037   -0.000581   -0.001306
     5    0.015715   -0.034786   -0.001021
     6   -0.000274    0.020611   -0.031196
     7   -0.015503    0.015361    0.031969
     8   -0.015715    0.034786    0.001021
     9    0.000274   -0.020611    0.031196
    10    0.015503   -0.015361   -0.031969
----------------------------------------
   Tot    0.000000   -0.000000    0.000000
----------------------------------------
   Max    0.034786
   Res    0.017042    sqrt( Sum f_i^2 / 3N )
----------------------------------------
   Max    0.034786    constrained

Stress tensor Voigt[x,y,z,yz,xz,xy] (kbar):      184.88      113.49      103.35       11.68       25.97       39.84
(Free)E + p*V (eV/cell)    -2972.0480
Target enthalpy (eV/cell)    -2906.1112

outcoor: Relaxed atomic coordinates (fractional):           
    0.00000000   -0.00000000   -0.00000000   1       1  Mg
    0.50000000    0.50000000    0.50000000   1       2  Mg
    0.25000641    0.25000325    0.24999144   2       3  C
   -0.25000641   -0.25000325   -0.24999144   2       4  C
    0.55205067   -0.05204841    0.24999482   3       5  O
    0.25000071    0.55204573   -0.05204664   3       6  O
   -0.05206128    0.25000380    0.55206103   3       7  O
   -0.55205067    0.05204841   -0.24999482   3       8  O
   -0.25000071   -0.55204573    0.05204664   3       9  O
    0.05206128   -0.25000380   -0.55206103   3      10  O

siesta: Program's energy decomposition (eV):
siesta: Ebs     =      -634.780058
siesta: Eions   =      5249.502762
siesta: Ena     =      1136.765217
siesta: Ekin    =      2227.740440
siesta: Enl     =      -350.982581
siesta: Eso     =         0.000000
siesta: Edftu   =         0.000000
siesta: DEna    =       -41.090293
siesta: DUscf   =         6.877604
siesta: DUext   =         0.000000
siesta: Ex      =      -617.285637
siesta: Ec      =       -76.783088
siesta: Exc     =      -694.068724
siesta: EbV     =         0.000000
siesta: eta*DQ  =         0.000000
siesta: Emadel  =         0.000000
siesta: Emeta   =         0.000000
siesta: Emolmec =         0.000000
siesta: Ekinion =         0.000000
siesta: Eharris =     -2964.261099
siesta: Etot    =     -2964.261099
siesta: FreeEng =     -2964.261099

siesta: Final energy (eV):
siesta:  Band Struct. =    -634.780058
siesta:       Kinetic =    2227.740440
siesta:       Hartree =     915.353618
siesta:         Edftu =       0.000000
siesta:       Eso     =       0.000000
siesta:    Ext. field =       0.000000
siesta:         Exch. =    -617.285637
siesta:         Corr. =     -76.783088
siesta:     Bulk bias =       0.000000
siesta:   Exch.-corr. =    -694.068724
siesta:  Ion-electron =   -3783.775694
siesta:       Ion-ion =   -1629.510739
siesta:       Ekinion =       0.000000
siesta: D3 dispersion =       0.000000
siesta:         Total =   -2964.261099
siesta:         Fermi =      -4.958116

siesta: Stress tensor (static) (eV/Ang**3):
siesta:     0.115395    0.024867    0.016211
siesta:     0.024867    0.070838    0.007291
siesta:     0.016211    0.007291    0.064507

siesta: Cell volume =         93.166340 Ang**3

siesta: Pressure (static):
siesta:                Solid            Molecule  Units
siesta:          -0.00091030         -0.00092303  Ry/Bohr**3
siesta:          -0.08358017         -0.08474840  eV/Ang**3
siesta:        -133.91019315       -135.78191328  kBar
(Free)E+ p_basis*V_orbitals  =       -2962.707865
(Free)Eharris+ p_basis*V_orbitals  =       -2962.707865

cite: Please see "fire.bib" for an exhaustive BiBTeX file.
cite: Please clearly indicate Siesta version in published work: 5.0.0-alpha-123-gfb8fd7d02
cite: This calculation has made use of the following articles
cite: which are encouraged to be cited in a published work.
        Primary SIESTA paper
          DOI: www.doi.org/10.1088/0953-8984/14/11/302


timer: Elapsed wall time (sec) =       1.716
timer: CPU execution times (sec):

Routine            Calls   Time/call    Tot.time        %
siesta                 1       1.708       1.708   100.00
Setup                  1       0.095       0.095     5.58
bands                  1       0.000       0.000     0.00
KSV_init               1       0.000       0.000     0.00
IterGeom               5       0.323       1.613    94.39
geom_init              5       0.132       0.658    38.53
state_init             5       0.050       0.249    14.58
hsparse                5       0.006       0.028     1.65
overlap                5       0.003       0.013     0.74
Setup_H0               5       0.073       0.365    21.36
naefs                 10       0.000       0.003     0.19
MolMec                10       0.000       0.000     0.00
kinefsm               10       0.002       0.016     0.96
nlefsm                10       0.022       0.224    13.12
DHSCF_Init             5       0.041       0.203    11.88
DHSCF1                 5       0.004       0.019     1.14
INITMESH               5       0.000       0.000     0.00
DHSCF2                 5       0.037       0.183    10.73
REMESH                 5       0.007       0.033     1.91
REORD                134       0.000       0.001     0.09
PHION                  5       0.022       0.109     6.40
COMM_BSC             203       0.000       0.002     0.09
POISON                52       0.000       0.011     0.62
fft                  104       0.000       0.007     0.41
setup_H               42       0.008       0.351    20.54
DHSCF                 47       0.012       0.558    32.69
DHSCF3                47       0.008       0.390    22.82
rhoofd                47       0.004       0.183    10.69
XC                    47       0.001       0.048     2.81
GXC-CellXC            47       0.001       0.047     2.77
gridxc@cellXC         47       0.001       0.047     2.76
vmat                  47       0.003       0.144     8.44
IterSCF               37       0.018       0.655    38.37
compute_dm            37       0.009       0.342    19.99
diagon                37       0.009       0.341    19.94
c-eigval             444       0.000       0.089     5.19
c-buildHS            444       0.000       0.058     3.41
cdiag                888       0.000       0.090     5.29
cdiag1               888       0.000       0.004     0.25
cdiag2               888       0.000       0.017     0.98
cdiag3               888       0.000       0.063     3.70
c-eigvec             444       0.000       0.120     7.01
cdiag4               444       0.000       0.003     0.16
c-buildD             444       0.000       0.131     7.67
MIXER                 32       0.000       0.002     0.10
PostSCF                5       0.059       0.297    17.41
DHSCF4                 5       0.034       0.169     9.87
dfscf                  5       0.024       0.121     7.10
overfsm                5       0.001       0.004     0.25
state_analysis         5       0.000       0.001     0.04
siesta_move            5       0.000       0.000     0.02
Analysis               1       0.001       0.001     0.03
optical                1       0.000       0.000     0.00
  

>> End of run:  28-SEP-2023  15:37:20
Job completed
