Siesta Version  : 5.0.0-alpha-123-gfb8fd7d02
Architecture    : ----
Compiler version: GNU-11.4.0
Compiler flags  : -fallow-argument-mismatch;-O3 -march=native
PP flags        : ----
Libraries       : ----
Parallelisations: none
GEMM3M support
NetCDF support
NetCDF-4 support
Lua support

Runtime information:
* Directory : /home/fnpedron/Siesta/siesta-dev/Tests/08.GeometryOptimization/work/fire_vc
* Running in serial mode.
>> Start of run:  28-SEP-2023  15:37:20

                           *********************** 
                           *  WELCOME TO SIESTA  * 
                           *********************** 

reinit: Reading from standard input
reinit: Dumping input in INPUT_TMP.34006
************************** Dump of input data file ****************************
%include ../../basejob.fdf
SystemLabel      fire_vc
MD.TypeOfRun     fire
MD.FIRE.TimeStep 0.3 fs
MD.FIRE.Mass     1.0
MD.FIRE.Nmin       5
MD.VariableCell    T
************************** End of input data file *****************************

reinit: -----------------------------------------------------------------------
reinit: System Name: MgCO3
reinit: -----------------------------------------------------------------------
reinit: System Label: fire_vc
reinit: -----------------------------------------------------------------------

initatom: Reading input for the pseudopotentials and atomic orbitals ----------
Species number:   1 Atomic number:   12 Label: Mg
Species number:   2 Atomic number:    6 Label: C
Species number:   3 Atomic number:    8 Label: O


---- Processing specs for species: Mg
Ground state valence configuration:   3s02
Reading pseudopotential information in formatted form from:
  /home/fnpedron/Siesta/siesta-dev/Tests/Pseudos/Mg.psf

---- Processing specs for species: C
Ground state valence configuration:   2s02  2p02
Reading pseudopotential information in formatted form from:
  /home/fnpedron/Siesta/siesta-dev/Tests/Pseudos/C.psf

---- Processing specs for species: O
Ground state valence configuration:   2s02  2p04
Reading pseudopotential information in formatted form from:
  /home/fnpedron/Siesta/siesta-dev/Tests/Pseudos/O.psf

---- Pseudopotential check for Mg

Pseudized shells:
3s( 2.00) rc: 2.59
3p( 0.00) rc: 2.59
3d( 0.00) rc: 2.59
4f( 0.00) rc: 2.59
Valence configuration for ps generation: (assumed as above)

---- Pseudopotential check for C 

Pseudized shells:
2s( 2.00) rc: 1.49
2p( 2.00) rc: 1.52
3d( 0.00) rc: 1.58
Valence configuration for ps generation: (assumed as above)

---- Pseudopotential check for O 

Pseudized shells:
2s( 2.00) rc: 1.14
2p( 4.00) rc: 1.14
3d( 0.00) rc: 1.14
4f( 0.00) rc: 1.14
Valence configuration for ps generation: (assumed as above)
For Mg, standard SIESTA heuristics set lmxkb to 1
 (one more than the basis l, including polarization orbitals).
Use PS.lmax or PS.KBprojectors blocks to override.
For C, standard SIESTA heuristics set lmxkb to 2
 (one more than the basis l, including polarization orbitals).
Use PS.lmax or PS.KBprojectors blocks to override.
For O, standard SIESTA heuristics set lmxkb to 2
 (one more than the basis l, including polarization orbitals).
Use PS.lmax or PS.KBprojectors blocks to override.

<basis_specs>
===============================================================================
Mg                   Z=  12    Mass=  24.305        Charge= 0.17977+309
Lmxo=0 Lmxkb= 1    BasisType=split      Semic=F
L=0  Nsemic=0  Cnfigmx=3
          i=1  nzeta=1  polorb=0  (3s)
            splnorm:   0.15000    
               vcte:    40.000    
               rinn:  -0.90000    
               qcoe:    0.0000    
               qyuk:    0.0000    
               qwid:   0.10000E-01
                rcs:    0.0000    
            lambdas:    1.0000    
-------------------------------------------------------------------------------
L=0  Nkbl=1  erefs: 0.17977+309
L=1  Nkbl=1  erefs: 0.17977+309
===============================================================================
</basis_specs>

Using PAO.SplitTailNorm
atom: Called for Mg                    (Z =  12)
Maximum radius (at nrval) set to   50.00000 8518

read_vps: Pseudopotential generation method:
read_vps: ATM3      Troullier-Martins                       
Valence charge in pseudo generation:    2.00000

xc_check: Exchange-correlation functional:
xc_check: Ceperley-Alder
V l=0 = -2*Zval/r beyond r=  3.6077
V l=1 = -2*Zval/r beyond r=  3.6077
All V_l potentials equal beyond r=  2.5675
This should be close to max(r_c) in ps generation
All pots = -2*Zval/r beyond r=  3.6077
Using large-core scheme (fit) for Vlocal

atom: Estimated core radius    3.60767

atom: Including non-local core corrections could be a good idea
Fit of Vlocal with continuous 2nd derivative
Fitting vlocal at       2.5753
Choosing vlocal chloc cutoff:***  3.897234
qtot up to nchloc:    2.00021543
atom: Maximum radius for chlocal:    3.89723
atom: Maximum radius for r*vlocal+2*Zval:    3.89723

KBgen: Kleinman-Bylander projectors: 
GHOST: No ghost state for L =  0
   l= 0   rc=  2.567525   el= -0.351328   Ekb=  2.696148   kbcos=  0.292957
GHOST: No ghost state for L =  1
   l= 1   rc=  2.590828   el= -0.101748   Ekb=  1.049266   kbcos=  0.260113

KBgen: Total number of Kleinman-Bylander projectors:   4
atom: -------------------------------------------------------------------------

atom: SANKEY-TYPE ORBITALS:

SPLIT: Orbitals with angular momentum L= 0

SPLIT: Basis orbitals for state 3s

SPLIT: PAO cut-off radius determined from an
SPLIT: energy shift=  0.010000 Ry
Split based on tail norm

   izeta = 1
                 lambda =    1.000000
                     rc =    7.238756
                 energy =   -0.339633
                kinetic =    0.272466
    potential(screened) =   -0.612099
       potential(ionic) =   -1.372639
atom: Total number of Sankey-type orbitals:  1

atm_pop: Valence configuration (for local Pseudopot. screening):
 3s( 2.00)                                                            
Vna: chval, zval:    2.00000   2.00000

Vna:  Cut-off radius for the neutral-atom potential:   7.238756

atom: _________________________________________________________________________

<basis_specs>
===============================================================================
C                    Z=   6    Mass=  12.011        Charge= 0.17977+309
Lmxo=1 Lmxkb= 2    BasisType=split      Semic=F
L=0  Nsemic=0  Cnfigmx=2
          i=1  nzeta=1  polorb=0  (2s)
            splnorm:   0.15000    
               vcte:    40.000    
               rinn:  -0.90000    
               qcoe:    0.0000    
               qyuk:    0.0000    
               qwid:   0.10000E-01
                rcs:    0.0000    
            lambdas:    1.0000    
L=1  Nsemic=0  Cnfigmx=2
          i=1  nzeta=1  polorb=0  (2p)
            splnorm:   0.15000    
               vcte:    40.000    
               rinn:  -0.90000    
               qcoe:    0.0000    
               qyuk:    0.0000    
               qwid:   0.10000E-01
                rcs:    0.0000    
            lambdas:    1.0000    
-------------------------------------------------------------------------------
L=0  Nkbl=1  erefs: 0.17977+309
L=1  Nkbl=1  erefs: 0.17977+309
L=2  Nkbl=1  erefs: 0.17977+309
===============================================================================
</basis_specs>

Using PAO.SplitTailNorm
atom: Called for C                     (Z =   6)
Maximum radius (at nrval) set to   50.00000 8518

read_vps: Pseudopotential generation method:
read_vps: ATM3      Troullier-Martins                       
Valence charge in pseudo generation:    4.00000

xc_check: Exchange-correlation functional:
xc_check: Ceperley-Alder
V l=0 = -2*Zval/r beyond r=  1.4801
V l=1 = -2*Zval/r beyond r=  1.5087
V l=2 = -2*Zval/r beyond r=  1.5628
All V_l potentials equal beyond r=  1.5612
This should be close to max(r_c) in ps generation
All pots = -2*Zval/r beyond r=  1.5628
Using small-core scheme (local charge) for Vlocal

VLOCAL_FROM_CHLOCAL: 99.0% of the norm of Vloc inside     17.810 Ry
VLOCAL_FROM_CHLOCAL: 99.9% of the norm of Vloc inside     40.589 Ry
atom: Maximum radius for chlocal:    1.86354
atom: Maximum radius for r*vlocal+2*Zval:    1.70915

KBgen: Kleinman-Bylander projectors: 
GHOST: No ghost state for L =  0
   l= 0   rc=  1.745634   el= -1.001947   Ekb=  5.181804   kbcos=  0.300616
GHOST: No ghost state for L =  1
   l= 1   rc=  1.745634   el= -0.398598   Ekb= -4.328614   kbcos= -0.367151
GHOST: No ghost state for L =  2
   l= 2   rc=  1.934160   el=  0.013259   Ekb= -1.016084   kbcos= -0.010830

KBgen: Total number of Kleinman-Bylander projectors:   9
atom: -------------------------------------------------------------------------

atom: SANKEY-TYPE ORBITALS:

SPLIT: Orbitals with angular momentum L= 0

SPLIT: Basis orbitals for state 2s

SPLIT: PAO cut-off radius determined from an
SPLIT: energy shift=  0.010000 Ry
Split based on tail norm

   izeta = 1
                 lambda =    1.000000
                     rc =    4.511437
                 energy =   -0.990638
                kinetic =    0.865864
    potential(screened) =   -1.856502
       potential(ionic) =   -5.451831

SPLIT: Orbitals with angular momentum L= 1

SPLIT: Basis orbitals for state 2p

SPLIT: PAO cut-off radius determined from an
SPLIT: energy shift=  0.010000 Ry
Split based on tail norm

   izeta = 1
                 lambda =    1.000000
                     rc =    5.413980
                 energy =   -0.387425
                kinetic =    2.474707
    potential(screened) =   -2.862132
       potential(ionic) =   -6.338849
atom: Total number of Sankey-type orbitals:  4

atm_pop: Valence configuration (for local Pseudopot. screening):
 2s( 2.00)                                                            
 2p( 2.00)                                                            
Vna: chval, zval:    4.00000   4.00000

Vna:  Cut-off radius for the neutral-atom potential:   5.413980

atom: _________________________________________________________________________

<basis_specs>
===============================================================================
O                    Z=   8    Mass=  15.999        Charge= 0.17977+309
Lmxo=1 Lmxkb= 2    BasisType=split      Semic=F
L=0  Nsemic=0  Cnfigmx=2
          i=1  nzeta=1  polorb=0  (2s)
            splnorm:   0.15000    
               vcte:    40.000    
               rinn:  -0.90000    
               qcoe:    0.0000    
               qyuk:    0.0000    
               qwid:   0.10000E-01
                rcs:    0.0000    
            lambdas:    1.0000    
L=1  Nsemic=0  Cnfigmx=2
          i=1  nzeta=1  polorb=0  (2p)
            splnorm:   0.15000    
               vcte:    40.000    
               rinn:  -0.90000    
               qcoe:    0.0000    
               qyuk:    0.0000    
               qwid:   0.10000E-01
                rcs:    0.0000    
            lambdas:    1.0000    
-------------------------------------------------------------------------------
L=0  Nkbl=1  erefs: 0.17977+309
L=1  Nkbl=1  erefs: 0.17977+309
L=2  Nkbl=1  erefs: 0.17977+309
===============================================================================
</basis_specs>

Using PAO.SplitTailNorm
atom: Called for O                     (Z =   8)
Maximum radius (at nrval) set to   50.00000 8518

read_vps: Pseudopotential generation method:
read_vps: ATM3      Troullier-Martins                       
Valence charge in pseudo generation:    6.00000

xc_check: Exchange-correlation functional:
xc_check: Ceperley-Alder
V l=0 = -2*Zval/r beyond r=  1.1366
V l=1 = -2*Zval/r beyond r=  1.1332
V l=2 = -2*Zval/r beyond r=  1.1298
All V_l potentials equal beyond r=  1.1355
This should be close to max(r_c) in ps generation
All pots = -2*Zval/r beyond r=  1.1366
Using small-core scheme (local charge) for Vlocal

VLOCAL_FROM_CHLOCAL: 99.0% of the norm of Vloc inside     33.667 Ry
VLOCAL_FROM_CHLOCAL: 99.9% of the norm of Vloc inside     76.727 Ry
atom: Maximum radius for chlocal:    1.37241
atom: Maximum radius for r*vlocal+2*Zval:    1.25469

KBgen: Kleinman-Bylander projectors: 
GHOST: No ghost state for L =  0
   l= 0   rc=  1.293209   el= -1.742414   Ekb=  9.076872   kbcos=  0.325320
GHOST: No ghost state for L =  1
   l= 1   rc=  1.284119   el= -0.676589   Ekb= -8.194485   kbcos= -0.396010
GHOST: No ghost state for L =  2
   l= 2   rc=  1.433152   el=  0.013307   Ekb= -2.071665   kbcos= -0.003690

KBgen: Total number of Kleinman-Bylander projectors:   9
atom: -------------------------------------------------------------------------

atom: SANKEY-TYPE ORBITALS:

SPLIT: Orbitals with angular momentum L= 0

SPLIT: Basis orbitals for state 2s

SPLIT: PAO cut-off radius determined from an
SPLIT: energy shift=  0.010000 Ry
Split based on tail norm

   izeta = 1
                 lambda =    1.000000
                     rc =    3.560943
                 energy =   -1.731321
                kinetic =    1.587329
    potential(screened) =   -3.318651
       potential(ionic) =  -11.260325

SPLIT: Orbitals with angular momentum L= 1

SPLIT: Basis orbitals for state 2p

SPLIT: PAO cut-off radius determined from an
SPLIT: energy shift=  0.010000 Ry
Split based on tail norm

   izeta = 1
                 lambda =    1.000000
                     rc =    4.290924
                 energy =   -0.665565
                kinetic =    4.934810
    potential(screened) =   -5.600376
       potential(ionic) =  -13.346429
atom: Total number of Sankey-type orbitals:  4

atm_pop: Valence configuration (for local Pseudopot. screening):
 2s( 2.00)                                                            
 2p( 4.00)                                                            
Vna: chval, zval:    6.00000   6.00000

Vna:  Cut-off radius for the neutral-atom potential:   4.290924

atom: _________________________________________________________________________

prinput: Basis input 

PAO.BasisType split     

%block ChemicalSpeciesLabel
    1   12 Mg                      # Species index, atomic number, species label
    2    6 C                       # Species index, atomic number, species label
    3    8 O                       # Species index, atomic number, species label
%endblock ChemicalSpeciesLabel

%block PAO.Basis                 # Define Basis set
# WARNING: This information might be incomplete!
Mg                    1                    # Species label, number of l-shells
 n=3   0   1                         # n, l, Nzeta 
   7.239   
   1.000   
C                     2                    # Species label, number of l-shells
 n=2   0   1                         # n, l, Nzeta 
   4.511   
   1.000   
 n=2   1   1                         # n, l, Nzeta 
   5.414   
   1.000   
O                     2                    # Species label, number of l-shells
 n=2   0   1                         # n, l, Nzeta 
   3.561   
   1.000   
 n=2   1   1                         # n, l, Nzeta 
   4.291   
   1.000   
%endblock PAO.Basis

prinput: ----------------------------------------------------------------------

Dumping basis to NetCDF file Mg.ion.nc
Dumping basis to NetCDF file C.ion.nc
Dumping basis to NetCDF file O.ion.nc
coor:   Atomic-coordinates input format  =     Fractional

siesta: Atomic coordinates (Bohr) and species
siesta:      0.00000   0.00000   0.00000  1        1
siesta:     12.51929   5.59740   3.66414  1        2
siesta:      6.25965   2.79870   1.83207  2        3
siesta:     -6.25965  -2.79870  -1.83207  2        4
siesta:      7.25136   0.58061   1.83207  3        5
siesta:      6.25965   4.12944  -0.20079  3        6
siesta:      5.26793   3.68605   3.86493  3        7
siesta:     -7.25136  -0.58061  -1.83207  3        8
siesta:     -6.25965  -4.12944   0.20079  3        9
siesta:     -5.26793  -3.68605  -3.86493  3       10

siesta: System type = bulk      

initatomlists: Number of atoms, orbitals, and projectors:     10    34    80

siesta: ******************** Simulation parameters ****************************
siesta:
siesta: The following are some of the parameters of the simulation.
siesta: A complete list of the parameters used, including default values,
siesta: can be found in file out.fdf
siesta:
redata: Spin configuration                          = none
redata: Number of spin components                   = 1
redata: Time-Reversal Symmetry                      = T
redata: Spin spiral                                 = F
redata: Long output                                 =   F
redata: Number of Atomic Species                    =        3
redata: Charge density info will appear in .RHO file
redata: Write Mulliken Pop.                         = NO
redata: Matel table size (NRTAB)                    =     1024
redata: Mesh Cutoff                                 =    50.0000 Ry
redata: Net charge of the system                    =     0.0000 |e|
redata: Min. number of SCF Iter                     =        0
redata: Max. number of SCF Iter                     =     1000
redata: SCF convergence failure will abort job
redata: SCF mix quantity                            = Hamiltonian
redata: Mix DM or H after convergence               =   F
redata: Recompute H after scf cycle                 =   F
redata: Mix DM in first SCF step                    =   T
redata: Write Pulay info on disk                    =   F
redata: New DM Occupancy tolerance                  = 0.000000000001
redata: No kicks to SCF
redata: DM Mixing Weight for Kicks                  =     0.5000
redata: Require Harris convergence for SCF          =   F
redata: Harris energy tolerance for SCF             =     0.000100 eV
redata: Require DM convergence for SCF              =   T
redata: DM tolerance for SCF                        =     0.000100
redata: Require EDM convergence for SCF             =   F
redata: EDM tolerance for SCF                       =     0.001000 eV
redata: Require H convergence for SCF               =   T
redata: Hamiltonian tolerance for SCF               =     0.001000 eV
redata: Require (free) Energy convergence for SCF   =   F
redata: (free) Energy tolerance for SCF             =     0.000100 eV
redata: Using DFT-D3 dispersion                     =   F
redata: Using Saved Data (generic)                  =   F
redata: Use continuation files for DM               =   F
redata: Neglect nonoverlap interactions             =   F
redata: Method of Calculation                       = Diagonalization
redata: Electronic Temperature                      =   299.9863 K
redata: Fix the spin of the system                  =   F
redata: Max. number of TDED Iter                    =        1
redata: Number of TDED substeps                     =        3
redata: Dynamics option                             = FIRE coord. optimization
redata: Variable cell                               =   T
redata: Use continuation files for CG               =   F
redata: Max atomic displ per move                   =     0.1000 Ang
redata: Maximum number of optimization moves        =        5
redata: Force tolerance                             =     0.0400 eV/Ang
redata: Stress tolerance                            =     2.0000 GPa
mix.SCF: Pulay mixing                            = Pulay
mix.SCF:    Variant                              = stable
mix.SCF:    History steps                        = 2
mix.SCF:    Linear mixing weight                 =     0.250000
mix.SCF:    Mixing weight                        =     0.250000
mix.SCF:    SVD condition                        = 0.1000E-07
redata: Save all siesta data in one NC              =   F
redata: ***********************************************************************

%block SCF.Mixers
  Pulay
%endblock SCF.Mixers

%block SCF.Mixer.Pulay
  # Mixing method
  method pulay
  variant stable

  # Mixing options
  weight 0.2500
  weight.linear 0.2500
  history 2
%endblock SCF.Mixer.Pulay

DM_history_depth set to one: no extrapolation allowed by default for geometry relaxation
Size of DM history Fstack: 1
Total number of electrons:    48.000000
Total ionic charge:    48.000000
 Kpoints in:           12 . Kpoints trimmed:           12

siesta: k-grid: Number of k-points = 12
siesta: k-points from cutoff
siesta: k-cutoff (effective) =     5.678 Ang
siesta: k-point supercell and displacements
siesta: k-grid:    -3     0     3      0.500
siesta: k-grid:     0    -3     3      0.000
siesta: k-grid:     0     0     2      0.000

diag: Algorithm                                     = D&C
diag: Used triangular part                          = Lower
diag: Absolute tolerance                            =  0.100E-15
diag: Orthogonalization factor                      =  0.100E-05
diag: Memory factor                                 =  1.0000

superc: Internal auxiliary supercell:     5 x     5 x     5  =     125
superc: Number of atoms, orbitals, and projectors:   1250   4250  10000


ts: **************************************************************
ts: Save H and S matrices                           =    F
ts: Save DM and EDM matrices                        =    F
ts: Only save the overlap matrix S                  =    F
ts: **************************************************************

************************ Begin: TS CHECKS AND WARNINGS ************************
************************ End: TS CHECKS AND WARNINGS **************************


                     ====================================
                        Begin FIRE opt. move =      0
                     ====================================

outcoor: Atomic coordinates (fractional):                   
    0.00000000    0.00000000    0.00000000   1       1  Mg
    0.50000000    0.50000000    0.50000000   1       2  Mg
    0.25000000    0.25000000    0.25000000   2       3  C
   -0.25000000   -0.25000000   -0.25000000   2       4  C
    0.52740000   -0.02740000    0.25000000   3       5  O
    0.25000000    0.52740000   -0.02740000   3       6  O
   -0.02740000    0.25000000    0.52740000   3       7  O
   -0.52740000    0.02740000   -0.25000000   3       8  O
   -0.25000000   -0.52740000    0.02740000   3       9  O
    0.02740000   -0.25000000   -0.52740000   3      10  O

superc: Internal auxiliary supercell:     5 x     5 x     5  =     125
superc: Number of atoms, orbitals, and projectors:   1250   4250  10000

outcell: Unit cell vectors (Ang):
        5.677830    0.000000    0.000000
        3.786009    4.231299    0.000000
        3.786009    1.692731    3.877957

outcell: Cell vector modules (Ang)   :    5.677830    5.677830    5.677830
outcell: Cell angles (23,13,12) (deg):     48.1790     48.1790     48.1790
outcell: Cell volume (Ang**3)        :     93.1663
<dSpData1D:S at geom step 0
  <sparsity:sparsity for geom step 0
    nrows_g=34 nrows=34 sparsity=10.6834 nnzs=12350, refcount: 7>
  <dData1D:(new from dSpData1D) n=12350, refcount: 1>
refcount: 1>
new_DM -- step:     1
Initializing Density Matrix...
DM filled with atomic data:
<dSpData2D:DM initialized from atoms
  <sparsity:sparsity for geom step 0
    nrows_g=34 nrows=34 sparsity=10.6834 nnzs=12350, refcount: 8>
  <dData2D:DM n=12350 m=1, refcount: 1>
refcount: 1>
No. of atoms with KB's overlaping orbs in proc 0. Max # of overlaps:     129      93

InitMesh: MESH = 24 x 24 x 24 = 13824
InitMesh: Mesh cutoff (required, used) =    50.000    63.482 Ry
New grid distribution [1]: sub = 2

stepf: Fermi-Dirac step function

siesta: Program's energy decomposition (eV):
siesta: Ebs     =      -589.780073
siesta: Eions   =      5249.502762
siesta: Ena     =      1131.157040
siesta: Ekin    =      2359.424687
siesta: Enl     =      -400.615198
siesta: Eso     =         0.000000
siesta: Edftu   =         0.000000
siesta: DEna    =       -97.751840
siesta: DUscf   =        22.539196
siesta: DUext   =         0.000000
siesta: Ex      =      -640.394102
siesta: Ec      =       -77.786808
siesta: Exc     =      -718.180909
siesta: EbV     =         0.000000
siesta: eta*DQ  =         0.000000
siesta: Emadel  =         0.000000
siesta: Emeta   =         0.000000
siesta: Emolmec =         0.000000
siesta: Ekinion =         0.000000
siesta: Eharris =     -2902.075069
siesta: Etot    =     -2952.929787
siesta: FreeEng =     -2952.929787

        iscf     Eharris(eV)        E_KS(eV)     FreeEng(eV)     dDmax    Ef(eV) dHmax(eV)
   scf:    1    -2902.075069    -2952.929787    -2952.929787  1.801898 -3.702524  4.572038
timer: Routine,Calls,Time,% = IterSCF        1       0.018   5.54
   scf:    2    -2964.871605    -2959.585913    -2959.585913  0.187089 -3.854108  2.422891
   scf:    3    -2961.972495    -2961.352073    -2961.352073  0.188526 -3.834771  0.640200
   scf:    4    -2961.415956    -2961.385483    -2961.385483  0.009823 -3.733716  0.387105
   scf:    5    -2961.423991    -2961.407999    -2961.407999  0.020606 -3.555753  0.058666
   scf:    6    -2961.409162    -2961.408647    -2961.408647  0.002389 -3.550476  0.026282
   scf:    7    -2961.408991    -2961.408849    -2961.408849  0.002059 -3.550032  0.011932
   scf:    8    -2961.408855    -2961.408852    -2961.408852  0.000147 -3.552923  0.007826
   scf:    9    -2961.408854    -2961.408853    -2961.408853  0.000202 -3.559110  0.001972
   scf:   10    -2961.408854    -2961.408854    -2961.408854  0.000048 -3.559874  0.000948

SCF Convergence by DM+H criterion
max |DM_out - DM_in|         :     0.0000482637
max |H_out - H_in|      (eV) :     0.0009477601
SCF cycle converged after 10 iterations

Using DM_out to compute the final energy and forces
No. of atoms with KB's overlaping orbs in proc 0. Max # of overlaps:     129      93

siesta: E_KS(eV) =            -2961.4089

siesta: E_KS - E_eggbox =     -2961.4089

siesta: Atomic forces (eV/Ang):
     1   -0.000000   -0.000000   -0.000000
     2   -0.000000    0.000000    0.000000
     3    0.001422   -0.000199   -0.003353
     4   -0.001422    0.000199    0.003353
     5    3.569916   -7.986374   -0.001363
     6    0.000090    4.790229   -7.318174
     7   -3.571479    3.197462    7.322958
     8   -3.569916    7.986374    0.001363
     9   -0.000090   -4.790229    7.318174
    10    3.571479   -3.197462   -7.322958
----------------------------------------
   Tot    0.000000    0.000000   -0.000000
----------------------------------------
   Max    7.986374
   Res    3.912658    sqrt( Sum f_i^2 / 3N )
----------------------------------------
   Max    7.986374    constrained

Stress tensor Voigt[x,y,z,yz,xz,xy] (kbar):      129.20     -233.45     -285.13       59.22      132.55      202.68
(Free)E + p*V (eV/cell)    -2953.8616
Target enthalpy (eV/cell)    -2903.2590

siesta: Stress tensor (static) (eV/Ang**3):
         0.080643    0.126501    0.082731
         0.126501   -0.145707    0.036963
         0.082731    0.036963   -0.177961

siesta: Pressure (static):        129.78920600  kBar

siesta: Stress tensor (total) (eV/Ang**3):
         0.080643    0.126501    0.082731
         0.126501   -0.145707    0.036963
         0.082731    0.036963   -0.177961

siesta: Pressure (total):        129.78920600  kBar
FIRE: No of elements:     36

Broyden_optim: No target stress found, assuming hydrostatic MD.TargetPressure.

Broyden_optim: Target stress (kBar)
get_target_stress:     -1000.000       0.000       0.000
get_target_stress:         0.000   -1000.000       0.000
get_target_stress:         0.000       0.000   -1000.000

                     ====================================
                        Begin FIRE opt. move =      1
                     ====================================

outcoor: Atomic coordinates (fractional):                   
   -0.00000000   -0.00000000   -0.00000000   1       1  Mg
    0.50000000    0.50000000    0.50000000   1       2  Mg
    0.25000023    0.25000013    0.24999977   2       3  C
   -0.25000023   -0.25000013   -0.24999977   2       4  C
    0.52798233   -0.02798255    0.24999976   3       5  O
    0.25000001    0.52798233   -0.02798237   3       6  O
   -0.02798259    0.25000022    0.52798289   3       7  O
   -0.52798233    0.02798255   -0.24999976   3       8  O
   -0.25000001   -0.52798233    0.02798237   3       9  O
    0.02798259   -0.25000022   -0.52798289   3      10  O
 Kpoints in:           12 . Kpoints trimmed:           12

siesta: k-grid: Number of k-points = 12
siesta: k-points from cutoff
siesta: k-cutoff (effective) =     5.664 Ang
siesta: k-point supercell and displacements
siesta: k-grid:     0     3    -3      0.500
siesta: k-grid:     3     0    -3      0.000
siesta: k-grid:     0     2     0      0.000

superc: Internal auxiliary supercell:     5 x     5 x     5  =     125
superc: Number of atoms, orbitals, and projectors:   1250   4250  10000

outcell: Unit cell vectors (Ang):
        5.664018   -0.002479   -0.001621
        3.774952    4.222658   -0.001621
        3.774953    1.687788    3.870688

outcell: Cell vector modules (Ang)   :    5.664019    5.664018    5.664020
outcell: Cell angles (23,13,12) (deg):     48.2291     48.2291     48.2292
outcell: Cell volume (Ang**3)        :     92.6433
<dSpData1D:S at geom step 1
  <sparsity:sparsity for geom step 1
    nrows_g=34 nrows=34 sparsity=10.6834 nnzs=12350, refcount: 7>
  <dData1D:(new from dSpData1D) n=12350, refcount: 1>
refcount: 1>
new_DM -- step:     2
Re-using DM from previous geometries...
Number of DMs in history: 1
 DM extrapolation coefficients: 
1   1.00000
New DM after history re-use:
<dSpData2D:SpM extrapolated using coords
  <sparsity:sparsity for geom step 1
    nrows_g=34 nrows=34 sparsity=10.6834 nnzs=12350, refcount: 9>
  <dData2D:(temp array for extrapolation) n=12350 m=1, refcount: 1>
refcount: 1>
No. of atoms with KB's overlaping orbs in proc 0. Max # of overlaps:     129      93

InitMesh: MESH = 24 x 24 x 24 = 13824
InitMesh: Mesh cutoff (required, used) =    50.000    63.828 Ry
New grid distribution [1]: sub = 2

        iscf     Eharris(eV)        E_KS(eV)     FreeEng(eV)     dDmax    Ef(eV) dHmax(eV)
   scf:    1    -2961.547588    -2961.534252    -2961.534252  0.026243 -3.594592  0.020545
   scf:    2    -2961.534213    -2961.534254    -2961.534254  0.001149 -3.577825  0.012166
   scf:    3    -2961.534290    -2961.534277    -2961.534277  0.000527 -3.583122  0.002461
   scf:    4    -2961.534278    -2961.534278    -2961.534278  0.000053 -3.582676  0.001290
   scf:    5    -2961.534278    -2961.534278    -2961.534278  0.000060 -3.582006  0.000262

SCF Convergence by DM+H criterion
max |DM_out - DM_in|         :     0.0000604594
max |H_out - H_in|      (eV) :     0.0002617063
SCF cycle converged after 5 iterations

Using DM_out to compute the final energy and forces
No. of atoms with KB's overlaping orbs in proc 0. Max # of overlaps:     129      93

siesta: E_KS(eV) =            -2961.5343

siesta: Atomic forces (eV/Ang):
     1    0.000000   -0.000000   -0.000000
     2   -0.000000    0.000000    0.000000
     3   -0.002706    0.002334    0.005660
     4    0.002706   -0.002334   -0.005660
     5    3.538543   -7.915224    0.000917
     6   -0.000319    4.749502   -7.253750
     7   -3.534914    3.162822    7.245941
     8   -3.538543    7.915224   -0.000917
     9    0.000319   -4.749502    7.253750
    10    3.534914   -3.162822   -7.245941
----------------------------------------
   Tot   -0.000000   -0.000000   -0.000000
----------------------------------------
   Max    7.915224
   Res    3.875990    sqrt( Sum f_i^2 / 3N )
----------------------------------------
   Max    7.915224    constrained

Stress tensor Voigt[x,y,z,yz,xz,xy] (kbar):      124.54     -235.12     -286.54       58.83      131.57      201.04
(Free)E + p*V (eV/cell)    -2953.8799
Target enthalpy (eV/cell)    -2903.7109

siesta: Stress tensor (static) (eV/Ang**3):
         0.077732    0.125482    0.082117
         0.125482   -0.146753    0.036720
         0.082117    0.036720   -0.178844

siesta: Pressure (static):        132.37444974  kBar

siesta: Stress tensor (total) (eV/Ang**3):
         0.077732    0.125482    0.082117
         0.125482   -0.146753    0.036720
         0.082117    0.036720   -0.178844

siesta: Pressure (total):        132.37444974  kBar

                     ====================================
                        Begin FIRE opt. move =      2
                     ====================================

outcoor: Atomic coordinates (fractional):                   
    0.00000000   -0.00000000   -0.00000000   1       1  Mg
    0.50000000    0.50000000    0.50000000   1       2  Mg
    0.25000012    0.25000035    0.24999990   2       3  C
   -0.25000012   -0.25000035   -0.24999990   2       4  C
    0.52972328   -0.02972401    0.24999940   3       5  O
    0.24999998    0.52972341   -0.02972338   3       6  O
   -0.02972328    0.25000061    0.52972412   3       7  O
   -0.52972328    0.02972401   -0.24999940   3       8  O
   -0.24999998   -0.52972341    0.02972338   3       9  O
    0.02972328   -0.25000061   -0.52972412   3      10  O
 Kpoints in:           12 . Kpoints trimmed:           12

siesta: k-grid: Number of k-points = 12
siesta: k-points from cutoff
siesta: k-cutoff (effective) =     5.623 Ang
siesta: k-point supercell and displacements
siesta: k-grid:     0     3    -3      0.500
siesta: k-grid:     3     0    -3      0.000
siesta: k-grid:     0     2     0      0.000

superc: Internal auxiliary supercell:     5 x     5 x     5  =     125
superc: Number of atoms, orbitals, and projectors:   1250   4250  10000

outcell: Unit cell vectors (Ang):
        5.622717   -0.009880   -0.006463
        3.741896    4.196813   -0.006462
        3.741899    1.673010    3.848940

outcell: Cell vector modules (Ang)   :    5.622729    5.622727    5.622732
outcell: Cell angles (23,13,12) (deg):     48.3802     48.3803     48.3803
outcell: Cell volume (Ang**3)        :     91.0897
<dSpData1D:S at geom step 2
  <sparsity:sparsity for geom step 2
    nrows_g=34 nrows=34 sparsity=10.6834 nnzs=12350, refcount: 7>
  <dData1D:(new from dSpData1D) n=12350, refcount: 1>
refcount: 1>
new_DM -- step:     3
Re-using DM from previous geometries...
Number of DMs in history: 1
 DM extrapolation coefficients: 
1   1.00000
New DM after history re-use:
<dSpData2D:SpM extrapolated using coords
  <sparsity:sparsity for geom step 2
    nrows_g=34 nrows=34 sparsity=10.6834 nnzs=12350, refcount: 9>
  <dData2D:(temp array for extrapolation) n=12350 m=1, refcount: 1>
refcount: 1>
No. of atoms with KB's overlaping orbs in proc 0. Max # of overlaps:     129      93

InitMesh: MESH = 24 x 24 x 24 = 13824
InitMesh: Mesh cutoff (required, used) =    50.000    64.878 Ry
New grid distribution [1]: sub = 2

        iscf     Eharris(eV)        E_KS(eV)     FreeEng(eV)     dDmax    Ef(eV) dHmax(eV)
   scf:    1    -2961.923083    -2961.895819    -2961.895819  0.006590 -3.693340  0.062321
   scf:    2    -2961.895444    -2961.895840    -2961.895840  0.003743 -3.644874  0.038641
   scf:    3    -2961.896185    -2961.896056    -2961.896056  0.001718 -3.659861  0.006340
   scf:    4    -2961.896067    -2961.896062    -2961.896062  0.000186 -3.658699  0.003655
   scf:    5    -2961.896065    -2961.896064    -2961.896064  0.000198 -3.656867  0.001128
   scf:    6    -2961.896065    -2961.896064    -2961.896064  0.000014 -3.656525  0.000604

SCF Convergence by DM+H criterion
max |DM_out - DM_in|         :     0.0000139820
max |H_out - H_in|      (eV) :     0.0006036737
SCF cycle converged after 6 iterations

Using DM_out to compute the final energy and forces
No. of atoms with KB's overlaping orbs in proc 0. Max # of overlaps:     129      93

siesta: E_KS(eV) =            -2961.8961

siesta: Atomic forces (eV/Ang):
     1    0.000000   -0.000000   -0.000000
     2   -0.000000    0.000000    0.000000
     3   -0.002609    0.002171    0.005539
     4    0.002609   -0.002171   -0.005539
     5    3.428037   -7.667753    0.000990
     6   -0.000324    4.601127   -7.027105
     7   -3.424412    3.063755    7.019177
     8   -3.428037    7.667753   -0.000990
     9    0.000324   -4.601127    7.027105
    10    3.424412   -3.063755   -7.019177
----------------------------------------
   Tot   -0.000000   -0.000000   -0.000000
----------------------------------------
   Max    7.667753
   Res    3.754806    sqrt( Sum f_i^2 / 3N )
----------------------------------------
   Max    7.667753    constrained

Stress tensor Voigt[x,y,z,yz,xz,xy] (kbar):      110.02     -241.20     -291.40       57.45      128.47      196.31
(Free)E + p*V (eV/cell)    -2953.8877
Target enthalpy (eV/cell)    -2905.0424

siesta: Stress tensor (static) (eV/Ang**3):
         0.068671    0.122530    0.080186
         0.122530   -0.150546    0.035860
         0.080186    0.035860   -0.181878

siesta: Pressure (static):        140.85960310  kBar

siesta: Stress tensor (total) (eV/Ang**3):
         0.068671    0.122530    0.080186
         0.122530   -0.150546    0.035860
         0.080186    0.035860   -0.181878

siesta: Pressure (total):        140.85960310  kBar

                     ====================================
                        Begin FIRE opt. move =      3
                     ====================================

outcoor: Atomic coordinates (fractional):                   
    0.00000000   -0.00000000   -0.00000000   1       1  Mg
    0.50000000    0.50000000    0.50000000   1       2  Mg
    0.24999902    0.25000052    0.25000104   2       3  C
   -0.24999902   -0.25000052   -0.25000104   2       4  C
    0.53259513   -0.03259650    0.24999926   3       5  O
    0.24999982    0.53259563   -0.03259528   3       6  O
   -0.03259354    0.25000091    0.53259476   3       7  O
   -0.53259513    0.03259650   -0.24999926   3       8  O
   -0.24999982   -0.53259563    0.03259528   3       9  O
    0.03259354   -0.25000091   -0.53259476   3      10  O
 Kpoints in:           12 . Kpoints trimmed:           12

siesta: k-grid: Number of k-points = 12
siesta: k-points from cutoff
siesta: k-cutoff (effective) =     5.558 Ang
siesta: k-point supercell and displacements
siesta: k-grid:     0     3    -3      0.500
siesta: k-grid:    -3     0     3      0.000
siesta: k-grid:     0     2     0      0.000

superc: Internal auxiliary supercell:     5 x     5 x     5  =     125
superc: Number of atoms, orbitals, and projectors:   1250   4250  10000

outcell: Unit cell vectors (Ang):
        5.562625   -0.022063   -0.014434
        3.692748    4.154066   -0.014432
        3.692754    1.648602    3.812957

outcell: Cell vector modules (Ang)   :    5.562688    5.558135    5.558144
outcell: Cell angles (23,13,12) (deg):     48.6002     48.5916     48.5916
outcell: Cell volume (Ang**3)        :     88.6857
<dSpData1D:S at geom step 3
  <sparsity:sparsity for geom step 3
    nrows_g=34 nrows=34 sparsity=10.8702 nnzs=12566, refcount: 7>
  <dData1D:(new from dSpData1D) n=12566, refcount: 1>
refcount: 1>
new_DM -- step:     4
Re-using DM from previous geometries...
Number of DMs in history: 1
 DM extrapolation coefficients: 
1   1.00000
New DM after history re-use:
<dSpData2D:SpM extrapolated using coords
  <sparsity:sparsity for geom step 3
    nrows_g=34 nrows=34 sparsity=10.8702 nnzs=12566, refcount: 9>
  <dData2D:(temp array for extrapolation) n=12566 m=1, refcount: 1>
refcount: 1>
No. of atoms with KB's overlaping orbs in proc 0. Max # of overlaps:     135      93

InitMesh: MESH = 24 x 24 x 24 = 13824
InitMesh: Mesh cutoff (required, used) =    50.000    66.519 Ry
New grid distribution [1]: sub = 2

        iscf     Eharris(eV)        E_KS(eV)     FreeEng(eV)     dDmax    Ef(eV) dHmax(eV)
   scf:    1    -2962.453673    -2962.426206    -2962.426206  0.010405 -3.830211  0.102583
   scf:    2    -2962.424936    -2962.426284    -2962.426284  0.006573 -3.754005  0.066533
   scf:    3    -2962.427387    -2962.426983    -2962.426983  0.003098 -3.778521  0.011656
   scf:    4    -2962.427016    -2962.427001    -2962.427001  0.000293 -3.776193  0.006647
   scf:    5    -2962.427010    -2962.427008    -2962.427008  0.000330 -3.772477  0.001809
   scf:    6    -2962.427008    -2962.427008    -2962.427008  0.000022 -3.771923  0.000905

SCF Convergence by DM+H criterion
max |DM_out - DM_in|         :     0.0000219291
max |H_out - H_in|      (eV) :     0.0009050770
SCF cycle converged after 6 iterations

Using DM_out to compute the final energy and forces
No. of atoms with KB's overlaping orbs in proc 0. Max # of overlaps:     135      93

siesta: E_KS(eV) =            -2962.4270

siesta: Atomic forces (eV/Ang):
     1    0.000000   -0.000000   -0.000000
     2   -0.000000    0.000000   -0.000000
     3   -0.002104   -0.009385    0.021443
     4    0.002104    0.009385   -0.021443
     5    3.208772   -7.167971    0.003394
     6   -0.000368    4.315570   -6.590885
     7   -3.205404    2.861910    6.562681
     8   -3.208772    7.167971   -0.003394
     9    0.000368   -4.315570    6.590885
    10    3.205404   -2.861910   -6.562681
----------------------------------------
   Tot   -0.000000    0.000000   -0.000000
----------------------------------------
   Max    7.167971
   Res    3.514488    sqrt( Sum f_i^2 / 3N )
----------------------------------------
   Max    7.167971    constrained

Stress tensor Voigt[x,y,z,yz,xz,xy] (kbar):       85.15     -252.14     -300.79       55.69      122.82      187.67
(Free)E + p*V (eV/cell)    -2953.7959
Target enthalpy (eV/cell)    -2907.0738

siesta: Stress tensor (static) (eV/Ang**3):
         0.053147    0.117135    0.076660
         0.117135   -0.157373    0.034756
         0.076659    0.034756   -0.187740

siesta: Pressure (static):        155.92750654  kBar

siesta: Stress tensor (total) (eV/Ang**3):
         0.053147    0.117135    0.076660
         0.117135   -0.157373    0.034756
         0.076659    0.034756   -0.187740

siesta: Pressure (total):        155.92750654  kBar

                     ====================================
                        Begin FIRE opt. move =      4
                     ====================================

outcoor: Atomic coordinates (fractional):                   
    0.00000000   -0.00000000   -0.00000000   1       1  Mg
    0.50000000    0.50000000    0.50000000   1       2  Mg
    0.24999710    0.24999841    0.25000522   2       3  C
   -0.24999710   -0.24999841   -0.25000522   2       4  C
    0.53653302   -0.03653122    0.25000134   3       5  O
    0.24999953    0.53653459   -0.03653370   3       6  O
   -0.03652857    0.24999911    0.53652612   3       7  O
   -0.53653302    0.03653122   -0.25000134   3       8  O
   -0.24999953   -0.53653459    0.03653370   3       9  O
    0.03652857   -0.24999911   -0.53652612   3      10  O
 Kpoints in:           18 . Kpoints trimmed:           18

siesta: k-grid: Number of k-points = 18
siesta: k-points from cutoff
siesta: k-cutoff (effective) =     5.480 Ang
siesta: k-point supercell and displacements
siesta: k-grid:     0    -3     3      0.500
siesta: k-grid:    -3     0     3      0.000
siesta: k-grid:     0     0     2      0.000

superc: Internal auxiliary supercell:     5 x     5 x     5  =     125
superc: Number of atoms, orbitals, and projectors:   1250   4250  10000

outcell: Unit cell vectors (Ang):
        5.502534   -0.038742   -0.025348
        3.640249    4.098162   -0.025357
        3.640258    1.616222    3.763199

outcell: Cell vector modules (Ang)   :    5.502728    5.481513    5.479536
outcell: Cell angles (23,13,12) (deg):     48.8125     48.7708     48.7893
outcell: Cell volume (Ang**3)        :     85.8500
<dSpData1D:S at geom step 4
  <sparsity:sparsity for geom step 4
    nrows_g=34 nrows=34 sparsity=10.9844 nnzs=12698, refcount: 7>
  <dData1D:(new from dSpData1D) n=12698, refcount: 1>
refcount: 1>
new_DM -- step:     5
Re-using DM from previous geometries...
Number of DMs in history: 1
 DM extrapolation coefficients: 
1   1.00000
New DM after history re-use:
<dSpData2D:SpM extrapolated using coords
  <sparsity:sparsity for geom step 4
    nrows_g=34 nrows=34 sparsity=10.9844 nnzs=12698, refcount: 9>
  <dData2D:(temp array for extrapolation) n=12698 m=1, refcount: 1>
refcount: 1>
No. of atoms with KB's overlaping orbs in proc 0. Max # of overlaps:     135      93

InitMesh: MESH = 24 x 24 x 24 = 13824
InitMesh: Mesh cutoff (required, used) =    50.000    68.423 Ry
New grid distribution [1]: sub = 2

        iscf     Eharris(eV)        E_KS(eV)     FreeEng(eV)     dDmax    Ef(eV) dHmax(eV)
   scf:    1    -2963.092894    -2963.023554    -2963.023554  0.024897 -3.993673  0.149496
   scf:    2    -2963.017555    -2963.022731    -2963.022731  0.011471 -3.897500  0.111405
   scf:    3    -2963.026483    -2963.025219    -2963.025219  0.005849 -3.933305  0.020265
   scf:    4    -2963.025278    -2963.025250    -2963.025250  0.000360 -3.928444  0.011631
   scf:    5    -2963.025277    -2963.025267    -2963.025267  0.000581 -3.920262  0.001415
   scf:    6    -2963.025268    -2963.025268    -2963.025268  0.000023 -3.919749  0.000556

SCF Convergence by DM+H criterion
max |DM_out - DM_in|         :     0.0000232005
max |H_out - H_in|      (eV) :     0.0005557040
SCF cycle converged after 6 iterations

Using DM_out to compute the final energy and forces
No. of atoms with KB's overlaping orbs in proc 0. Max # of overlaps:     135      93

siesta: E_KS(eV) =            -2963.0253

siesta: Atomic forces (eV/Ang):
     1    0.000000   -0.000000    0.000000
     2    0.000000    0.000000   -0.000000
     3    0.017126   -0.088816    0.075307
     4   -0.017126    0.088816   -0.075307
     5    2.828685   -6.279759    0.009369
     6    0.000435    3.856138   -5.895915
     7   -2.848455    2.518894    5.804398
     8   -2.828685    6.279759   -0.009369
     9   -0.000435   -3.856138    5.895915
    10    2.848455   -2.518894   -5.804398
----------------------------------------
   Tot    0.000000    0.000000   -0.000000
----------------------------------------
   Max    6.279759
   Res    3.111612    sqrt( Sum f_i^2 / 3N )
----------------------------------------
   Max    6.279759    constrained

Stress tensor Voigt[x,y,z,yz,xz,xy] (kbar):       54.36     -264.70     -315.86       54.73      114.07      173.38
(Free)E + p*V (eV/cell)    -2953.6268
Target enthalpy (eV/cell)    -2909.4419

siesta: Stress tensor (static) (eV/Ang**3):
         0.033930    0.108215    0.071199
         0.108214   -0.165212    0.034159
         0.071198    0.034159   -0.197145

siesta: Pressure (static):        175.39970816  kBar

siesta: Stress tensor (total) (eV/Ang**3):
         0.033930    0.108215    0.071199
         0.108214   -0.165212    0.034159
         0.071198    0.034159   -0.197145

siesta: Pressure (total):        175.39970816  kBar

                     ====================================
                        Begin FIRE opt. move =      5
                     ====================================

outcoor: Atomic coordinates (fractional):                   
    0.00000000   -0.00000000   -0.00000000   1       1  Mg
    0.50000000    0.50000000    0.50000000   1       2  Mg
    0.25000034    0.24997858    0.25002165   2       3  C
   -0.25000034   -0.24997858   -0.25002165   2       4  C
    0.54141383   -0.04138676    0.25001445   3       5  O
    0.24999935    0.54142479   -0.04142327   3       6  O
   -0.04141240    0.24998572    0.54138393   3       7  O
   -0.54141383    0.04138676   -0.25001445   3       8  O
   -0.24999935   -0.54142479    0.04142327   3       9  O
    0.04141240   -0.24998572   -0.54138393   3      10  O
 Kpoints in:           18 . Kpoints trimmed:           18

siesta: k-grid: Number of k-points = 18
siesta: k-points from cutoff
siesta: k-cutoff (effective) =     5.396 Ang
siesta: k-point supercell and displacements
siesta: k-grid:     0    -3     3      0.500
siesta: k-grid:    -3     0     3      0.000
siesta: k-grid:     0     0     2      0.000

superc: Internal auxiliary supercell:     5 x     5 x     5  =     125
superc: Number of atoms, orbitals, and projectors:   1250   4250  10000

outcell: Unit cell vectors (Ang):
        5.442442   -0.059469   -0.038923
        3.584733    4.039559   -0.039009
        3.584737    1.580271    3.711264

outcell: Cell vector modules (Ang)   :    5.442906    5.400914    5.396395
outcell: Cell angles (23,13,12) (deg):     49.0833     48.9962     49.0386
outcell: Cell volume (Ang**3)        :     83.0705
<dSpData1D:S at geom step 5
  <sparsity:sparsity for geom step 5
    nrows_g=34 nrows=34 sparsity=11.2336 nnzs=12986, refcount: 7>
  <dData1D:(new from dSpData1D) n=12986, refcount: 1>
refcount: 1>
new_DM -- step:     6
Re-using DM from previous geometries...
Number of DMs in history: 1
 DM extrapolation coefficients: 
1   1.00000
New DM after history re-use:
<dSpData2D:SpM extrapolated using coords
  <sparsity:sparsity for geom step 5
    nrows_g=34 nrows=34 sparsity=11.2336 nnzs=12986, refcount: 9>
  <dData2D:(temp array for extrapolation) n=12986 m=1, refcount: 1>
refcount: 1>
No. of atoms with KB's overlaping orbs in proc 0. Max # of overlaps:     135      93

InitMesh: MESH = 24 x 20 x 20 = 9600
InitMesh: Mesh cutoff (required, used) =    50.000    58.331 Ry
New grid distribution [1]: sub = 2

        iscf     Eharris(eV)        E_KS(eV)     FreeEng(eV)     dDmax    Ef(eV) dHmax(eV)
   scf:    1    -2963.943302    -2963.655153    -2963.655153  0.026677 -4.177472  0.275011
   scf:    2    -2963.602367    -2963.645413    -2963.645413  0.030578 -4.048869  0.317657
   scf:    3    -2963.673231    -2963.664948    -2963.664948  0.017333 -4.111389  0.032523
   scf:    4    -2963.665048    -2963.665000    -2963.665000  0.000421 -4.103637  0.018798
   scf:    5    -2963.665028    -2963.664993    -2963.664993  0.000806 -4.089717  0.002867
   scf:    6    -2963.664995    -2963.664994    -2963.664994  0.000097 -4.088352  0.000472

SCF Convergence by DM+H criterion
max |DM_out - DM_in|         :     0.0000967461
max |H_out - H_in|      (eV) :     0.0004721143
SCF cycle converged after 6 iterations

Using DM_out to compute the final energy and forces
No. of atoms with KB's overlaping orbs in proc 0. Max # of overlaps:     135      93

siesta: E_KS(eV) =            -2963.6650

siesta: Atomic forces (eV/Ang):
     1   -0.000000    0.000000   -0.000000
     2   -0.000000    0.000000    0.000000
     3    0.034976   -0.136225    0.087422
     4   -0.034976    0.136225   -0.087422
     5    1.985523   -5.977818    0.293696
     6    0.003299    3.854236   -5.894795
     7   -2.025450    2.154633    5.684033
     8   -1.985523    5.977818   -0.293696
     9   -0.003299   -3.854236    5.894795
    10    2.025450   -2.154633   -5.684033
----------------------------------------
   Tot    0.000000    0.000000   -0.000000
----------------------------------------
   Max    5.977818
   Res    2.948979    sqrt( Sum f_i^2 / 3N )
----------------------------------------
   Max    5.977818    constrained

Stress tensor Voigt[x,y,z,yz,xz,xy] (kbar):       76.34     -270.64     -318.96       46.07      106.43      160.57
(Free)E + p*V (eV/cell)    -2954.7943
Target enthalpy (eV/cell)    -2911.8165

siesta: Stress tensor (static) (eV/Ang**3):
         0.047645    0.100218    0.066428
         0.100218   -0.168920    0.028756
         0.066428    0.028756   -0.199079

siesta: Pressure (static):        171.08770462  kBar

siesta: Stress tensor (total) (eV/Ang**3):
         0.047645    0.100218    0.066428
         0.100218   -0.168920    0.028756
         0.066428    0.028756   -0.199079

siesta: Pressure (total):        171.08770462  kBar

outcoor: Final (unrelaxed) atomic coordinates (fractional): 
    0.00000000   -0.00000000   -0.00000000   1       1  Mg
    0.50000000    0.50000000    0.50000000   1       2  Mg
    0.25000034    0.24997858    0.25002165   2       3  C
   -0.25000034   -0.24997858   -0.25002165   2       4  C
    0.54141383   -0.04138676    0.25001445   3       5  O
    0.24999935    0.54142479   -0.04142327   3       6  O
   -0.04141240    0.24998572    0.54138393   3       7  O
   -0.54141383    0.04138676   -0.25001445   3       8  O
   -0.24999935   -0.54142479    0.04142327   3       9  O
    0.04141240   -0.24998572   -0.54138393   3      10  O

outcell: Unit cell vectors (Ang):
        5.442442   -0.059469   -0.038923
        3.584733    4.039559   -0.039009
        3.584737    1.580271    3.711264

outcell: Cell vector modules (Ang)   :    5.442906    5.400914    5.396395
outcell: Cell angles (23,13,12) (deg):     49.0833     48.9962     49.0386
outcell: Cell volume (Ang**3)        :     83.0705

siesta: Program's energy decomposition (eV):
siesta: Ebs     =      -670.414893
siesta: Eions   =      5249.502762
siesta: Ena     =      1127.326495
siesta: Ekin    =      2273.052345
siesta: Enl     =      -366.029496
siesta: Eso     =         0.000000
siesta: Edftu   =         0.000000
siesta: DEna    =       -51.572200
siesta: DUscf   =         7.469812
siesta: DUext   =         0.000000
siesta: Ex      =      -627.079148
siesta: Ec      =       -77.330042
siesta: Exc     =      -704.409190
siesta: EbV     =         0.000000
siesta: eta*DQ  =         0.000000
siesta: Emadel  =         0.000000
siesta: Emeta   =         0.000000
siesta: Emolmec =         0.000000
siesta: Ekinion =         0.000000
siesta: Eharris =     -2963.664995
siesta: Etot    =     -2963.664994
siesta: FreeEng =     -2963.664994

siesta: Final energy (eV):
siesta:  Band Struct. =    -670.414893
siesta:       Kinetic =    2273.052345
siesta:       Hartree =     903.373877
siesta:         Edftu =       0.000000
siesta:       Eso     =       0.000000
siesta:    Ext. field =       0.000000
siesta:         Exch. =    -627.079148
siesta:         Corr. =     -77.330042
siesta:     Bulk bias =       0.000000
siesta:   Exch.-corr. =    -704.409190
siesta:  Ion-electron =   -3827.127985
siesta:       Ion-ion =   -1608.554042
siesta:       Ekinion =       0.000000
siesta: D3 dispersion =       0.000000
siesta:         Total =   -2963.664994
siesta:         Fermi =      -4.088352

siesta: Atomic forces (eV/Ang):
siesta:      1   -0.000000    0.000000   -0.000000
siesta:      2   -0.000000    0.000000    0.000000
siesta:      3    0.034976   -0.136225    0.087422
siesta:      4   -0.034976    0.136225   -0.087422
siesta:      5    1.985523   -5.977818    0.293696
siesta:      6    0.003299    3.854236   -5.894795
siesta:      7   -2.025450    2.154633    5.684033
siesta:      8   -1.985523    5.977818   -0.293696
siesta:      9   -0.003299   -3.854236    5.894795
siesta:     10    2.025450   -2.154633   -5.684033
siesta: ----------------------------------------
siesta:    Tot    0.000000    0.000000   -0.000000

siesta: Stress tensor (static) (eV/Ang**3):
siesta:     0.047645    0.100218    0.066428
siesta:     0.100218   -0.168920    0.028756
siesta:     0.066428    0.028756   -0.199079

siesta: Constrained stress tensor (static) (eV/Ang**3):
siesta:     0.047645    0.100218    0.066428
siesta:     0.100218   -0.168920    0.028756
siesta:     0.066428    0.028756   -0.199079

siesta: Cell volume =         83.070510 Ang**3

siesta: Pressure (static):
siesta:                Solid            Molecule  Units
siesta:           0.00116303         -0.00108861  Ry/Bohr**3
siesta:           0.10678455         -0.09995190  eV/Ang**3
siesta:         171.08770462       -160.14059370  kBar
(Free)E+ p_basis*V_orbitals  =       -2962.111759
(Free)Eharris+ p_basis*V_orbitals  =       -2962.111760

cite: Please see "fire_vc.bib" for an exhaustive BiBTeX file.
cite: Please clearly indicate Siesta version in published work: 5.0.0-alpha-123-gfb8fd7d02
cite: This calculation has made use of the following articles
cite: which are encouraged to be cited in a published work.
        Primary SIESTA paper
          DOI: www.doi.org/10.1088/0953-8984/14/11/302


timer: Elapsed wall time (sec) =       2.008
timer: CPU execution times (sec):

Routine            Calls   Time/call    Tot.time        %
siesta                 1       2.008       2.008   100.00
Setup                  1       0.094       0.094     4.70
bands                  1       0.000       0.000     0.00
KSV_init               1       0.000       0.000     0.00
IterGeom               6       0.319       1.913    95.26
geom_init              6       0.131       0.787    39.18
state_init             6       0.049       0.294    14.63
hsparse                6       0.005       0.032     1.58
overlap                6       0.002       0.014     0.71
Setup_H0               6       0.073       0.439    21.86
naefs                 12       0.000       0.004     0.20
MolMec                12       0.000       0.000     0.00
kinefsm               12       0.002       0.019     0.95
nlefsm                12       0.021       0.255    12.69
DHSCF_Init             6       0.044       0.261    13.01
DHSCF1                 6       0.004       0.026     1.28
INITMESH               6       0.000       0.000     0.00
DHSCF2                 6       0.039       0.235    11.72
REMESH                 6       0.007       0.043     2.16
REORD                150       0.000       0.002     0.08
PHION                  6       0.023       0.139     6.94
COMM_BSC             222       0.000       0.002     0.08
POISON                57       0.000       0.011     0.56
fft                  114       0.000       0.007     0.37
setup_H               45       0.009       0.386    19.20
DHSCF                 51       0.013       0.638    31.76
DHSCF3                51       0.009       0.434    21.61
rhoofd                51       0.004       0.208    10.38
XC                    51       0.001       0.050     2.48
GXC-CellXC            51       0.001       0.049     2.45
gridxc@cellXC         51       0.001       0.049     2.44
vmat                  51       0.003       0.160     7.95
IterSCF               39       0.020       0.762    37.92
compute_dm            39       0.011       0.422    21.02
diagon                39       0.011       0.421    20.97
c-eigval             540       0.000       0.107     5.33
c-buildHS            540       0.000       0.071     3.51
cdiag               1080       0.000       0.110     5.47
cdiag1              1080       0.000       0.005     0.25
cdiag2              1080       0.000       0.021     1.03
cdiag3              1080       0.000       0.077     3.82
c-eigvec             540       0.000       0.145     7.20
cdiag4               540       0.000       0.003     0.17
c-buildD             540       0.000       0.168     8.37
MIXER                 33       0.000       0.002     0.09
PostSCF                6       0.060       0.363    18.07
DHSCF4                 6       0.034       0.204    10.15
dfscf                  6       0.024       0.145     7.24
overfsm                6       0.001       0.006     0.28
state_analysis         6       0.000       0.001     0.04
siesta_move            6       0.000       0.000     0.02
Analysis               1       0.001       0.001     0.03
optical                1       0.000       0.000     0.00
  

>> End of run:  28-SEP-2023  15:37:22
Job completed
