Siesta Version  : 5.0.0-alpha-113-ge97739e85-dirty
Architecture    : ----
Compiler version: GNU-11.4.0
Compiler flags  : -fallow-argument-mismatch;-O3 -march=native
PP flags        : ----
Libraries       : ----
Parallelisations: none
GEMM3M support
NetCDF support
NetCDF-4 support
Lua support

Runtime information:
* Directory : /home/fnpedron/Siesta/siesta-master/Tests/00.BasisSets/work/custom_softbasis
* Running in serial mode.
>> Start of run:  29-SEP-2023  11:49:16

                           *********************** 
                           *  WELCOME TO SIESTA  * 
                           *********************** 

reinit: Reading from standard input
reinit: Dumping input in INPUT_TMP.75978
************************** Dump of input data file ****************************
%include ../../basejob.fdf
SystemLabel         custom_softbasis
NumberOfAtoms       3
NumberOfSpecies     2
%block ChemicalSpeciesLabel
 1  8  O
 2  1  H
%endblock ChemicalSpeciesLabel
# This defaults will partially apply to oxygen.
PAO.BasisSize TZTP
PAO.SoftDefault T
PAO.SoftInnerRadius 0.75
PAO.SplitValence.Legacy T
%block PAO.Basis
H    1  0.00
n=1  0  2   S 0.35  P 2 E 30.0 -0.5 # Split norm, fractional r_inner
    8.34 0.0
    1.0 1.0
O    2  0.00
n=2  0  2  E 30.0 -0.5         # fractional r_inner
    6.34 -0.8                  # fractional second_zeta
    1.0 1.0
n=2  1  3  S 0.4 E 40.0 -0.7 P #  Split_norm, fractional r_inner
    0.0 0.0 -0.8
    1.0 1.0  1.0
%endblock PAO.Basis
AtomicCoordinatesFormat  Ang
%block AtomicCoordinatesAndAtomicSpecies
 0.000  0.000  0.000  1
 0.757  0.586  0.000  2
-0.757  0.586  0.000  2
%endblock AtomicCoordinatesAndAtomicSpecies
************************** End of input data file *****************************

reinit: -----------------------------------------------------------------------
reinit: System Name: Water molecule
reinit: -----------------------------------------------------------------------
reinit: System Label: custom_softbasis
reinit: -----------------------------------------------------------------------

initatom: Reading input for the pseudopotentials and atomic orbitals ----------
Species number:   1 Atomic number:    8 Label: O
Species number:   2 Atomic number:    1 Label: H


---- Processing specs for species: O
Ground state valence configuration:   2s02  2p04
Reading pseudopotential information in formatted form from:
  /home/fnpedron/Siesta/siesta-master/Tests/Pseudos/O.psf

---- Processing specs for species: H
Ground state valence configuration:   1s01
Reading pseudopotential information in formatted form from:
  /home/fnpedron/Siesta/siesta-master/Tests/Pseudos/H.psf

---- Pseudopotential check for H 

Pseudized shells:
1s( 1.00) rc: 1.25
2p( 0.00) rc: 1.25
3d( 0.00) rc: 1.25
4f( 0.00) rc: 1.25
Valence configuration for ps generation: (assumed as above)

---- Pseudopotential check for O 

Pseudized shells:
2s( 2.00) rc: 1.14
2p( 4.00) rc: 1.14
3d( 0.00) rc: 1.14
4f( 0.00) rc: 1.14
Valence configuration for ps generation: (assumed as above)

*Warning: Per-shell split_norm parameter will not apply to zeta-3. rc= -0.8000

O: adding empty (pol) shell: 3d
H: adding empty (pol) shell: 2p
For O, standard SIESTA heuristics set lmxkb to 3
 (one more than the basis l, including polarization orbitals).
Use PS.lmax or PS.KBprojectors blocks to override.
For H, standard SIESTA heuristics set lmxkb to 2
 (one more than the basis l, including polarization orbitals).
Use PS.lmax or PS.KBprojectors blocks to override.

<basis_specs>
===============================================================================
O                    Z=   8    Mass=  15.999        Charge=  0.0000    
Lmxo=2 Lmxkb= 3    BasisType=split      Semic=F
L=0  Nsemic=0  Cnfigmx=2
          i=1  nzeta=2  polorb=0  (2s)
            splnorm:   0.15000    
               vcte:    30.000    
               rinn:  -0.50000    
               qcoe:    0.0000    
               qyuk:    0.0000    
               qwid:   0.10000E-01
                rcs:    6.3400    -0.80000    
            lambdas:    1.0000      1.0000    
L=1  Nsemic=0  Cnfigmx=2
          i=1  nzeta=3  polorb=1  (2p)  (to be polarized perturbatively)
            splnorm:   0.40000    
               vcte:    40.000    
               rinn:  -0.70000    
               qcoe:    0.0000    
               qyuk:    0.0000    
               qwid:   0.10000E-01
                rcs:    0.0000      0.0000    -0.80000    
            lambdas:    1.0000      1.0000      1.0000    
L=2  Nsemic=0  Cnfigmx=3
          i=1  nzeta=0  polorb=0  (3d)  (perturbative polarization orbital) (from 2p)
-------------------------------------------------------------------------------
L=0  Nkbl=1  erefs: 0.17977+309
L=1  Nkbl=1  erefs: 0.17977+309
L=2  Nkbl=1  erefs: 0.17977+309
L=3  Nkbl=1  erefs: 0.17977+309
===============================================================================
</basis_specs>

Using PAO.SplitValence.Legacy defaults
atom: Called for O                     (Z =   8)
Maximum radius (at nrval) set to   50.00000 8518

read_vps: Pseudopotential generation method:
read_vps: ATM3      Troullier-Martins                       
Valence charge in pseudo generation:    6.00000

xc_check: Exchange-correlation functional:
xc_check: Ceperley-Alder
V l=0 = -2*Zval/r beyond r=  1.1366
V l=1 = -2*Zval/r beyond r=  1.1332
V l=2 = -2*Zval/r beyond r=  1.1298
V l=3 = -2*Zval/r beyond r=  1.1264
All V_l potentials equal beyond r=  1.1355
This should be close to max(r_c) in ps generation
All pots = -2*Zval/r beyond r=  1.1366
Using small-core scheme (local charge) for Vlocal

VLOCAL_FROM_CHLOCAL: 99.0% of the norm of Vloc inside     33.667 Ry
VLOCAL_FROM_CHLOCAL: 99.9% of the norm of Vloc inside     76.727 Ry
atom: Maximum radius for chlocal:    1.37241
atom: Maximum radius for r*vlocal+2*Zval:    1.25469

KBgen: Kleinman-Bylander projectors: 
GHOST: No ghost state for L =  0
   l= 0   rc=  1.293209   el= -1.742414   Ekb=  9.076872   kbcos=  0.325320
GHOST: No ghost state for L =  1
   l= 1   rc=  1.284119   el= -0.676589   Ekb= -8.194485   kbcos= -0.396010
GHOST: No ghost state for L =  2
   l= 2   rc=  1.433152   el=  0.013307   Ekb= -2.071665   kbcos= -0.003690
GHOST: No ghost state for L =  3
   l= 3   rc=  1.540891   el=  0.019584   Ekb= -0.817137   kbcos= -0.000371

KBgen: Total number of Kleinman-Bylander projectors:  16
atom: -------------------------------------------------------------------------

atom: SANKEY-TYPE ORBITALS:
atom: Selected multiple-zeta basis: split     

SPLIT: Orbitals with angular momentum L= 0

SPLIT: Basis orbitals for state 2s

   izeta = 1
                 lambda =    1.000000
                     rc =    6.342382
                 energy =   -1.742268
                kinetic =    1.526189
    potential(screened) =   -3.268457
       potential(ionic) =  -11.145579

   izeta = 2
                 rmatch =    5.077720
              splitnorm =    0.000359
                 energy =   -1.741451
* WARNING: effective split_norm is quite small. Orbitals will be very similar.
                kinetic =    1.552807
    potential(screened) =   -3.294259
       potential(ionic) =  -11.202278

SPLIT: Orbitals with angular momentum L= 1

SPLIT: Basis orbitals for state 2p

SPLIT: PAO cut-off radius determined from an
SPLIT: energy shift=  0.010000 Ry

   izeta = 1
                 lambda =    1.000000
                     rc =    4.290924
                 energy =   -0.658453
                kinetic =    5.063726
    potential(screened) =   -5.722179
       potential(ionic) =  -13.545039

   izeta = 2
                 rmatch =    1.763278
              splitnorm =    0.400000
                 energy =    0.611263
                kinetic =   11.325600
    potential(screened) =  -10.714338
       potential(ionic) =  -20.096566

   izeta = 3
                 rmatch =    3.434676
              splitnorm =    0.027638
                 energy =   -0.603980
* WARNING: effective split_norm is quite small. Orbitals will be very similar.
                kinetic =    5.888513
    potential(screened) =   -6.492493
       potential(ionic) =  -14.689849

POLgen: Perturbative polarization orbital with L=  2

POLgen: Polarization orbital for state 2p

   izeta = 1
                     rc =    4.290924
                 energy =    2.460492
                kinetic =    4.648436
    potential(screened) =   -2.187943
       potential(ionic) =   -8.536998
atom: Total number of Sankey-type orbitals: 16

atm_pop: Valence configuration (for local Pseudopot. screening):
 2s( 2.00)                                                            
 2p( 4.00)                                                            
 3d( 0.00)                                                            
Vna: chval, zval:    6.00000   6.00000

Vna:  Cut-off radius for the neutral-atom potential:   6.342382

atom: _________________________________________________________________________

<basis_specs>
===============================================================================
H                    Z=   1    Mass=  1.0080        Charge=  0.0000    
Lmxo=1 Lmxkb= 2    BasisType=split      Semic=F
L=0  Nsemic=0  Cnfigmx=1
          i=1  nzeta=2  polorb=2  (1s)  (to be polarized perturbatively)
            splnorm:   0.35000    
               vcte:    30.000    
               rinn:  -0.50000    
               qcoe:    0.0000    
               qyuk:    0.0000    
               qwid:   0.10000E-01
                rcs:    8.3400      0.0000    
            lambdas:    1.0000      1.0000    
L=1  Nsemic=0  Cnfigmx=2
          i=1  nzeta=0  polorb=0  (2p)  (perturbative polarization orbital) (from 1s)
-------------------------------------------------------------------------------
L=0  Nkbl=1  erefs: 0.17977+309
L=1  Nkbl=1  erefs: 0.17977+309
L=2  Nkbl=1  erefs: 0.17977+309
===============================================================================
</basis_specs>

Using PAO.SplitValence.Legacy defaults
atom: Called for H                     (Z =   1)
Maximum radius (at nrval) set to   50.00000 8518

read_vps: Pseudopotential generation method:
read_vps: ATM3      Troullier-Martins                       
Valence charge in pseudo generation:    1.00000

xc_check: Exchange-correlation functional:
xc_check: Ceperley-Alder
V l=0 = -2*Zval/r beyond r=  1.2384
V l=1 = -2*Zval/r beyond r=  1.2321
V l=2 = -2*Zval/r beyond r=  1.2272
All V_l potentials equal beyond r=  1.2371
This should be close to max(r_c) in ps generation
All pots = -2*Zval/r beyond r=  1.2384
Using small-core scheme (local charge) for Vlocal

VLOCAL_FROM_CHLOCAL: 99.0% of the norm of Vloc inside     28.363 Ry
VLOCAL_FROM_CHLOCAL: 99.9% of the norm of Vloc inside     64.639 Ry
atom: Maximum radius for chlocal:    1.44620
atom: Maximum radius for r*vlocal+2*Zval:    1.31026

KBgen: Kleinman-Bylander projectors: 
GHOST: No ghost state for L =  0
   l= 0   rc=  1.364142   el= -0.467325   Ekb= -2.009475   kbcos= -0.336680
GHOST: No ghost state for L =  1
   l= 1   rc=  1.430269   el=  0.007562   Ekb= -0.503817   kbcos= -0.022554
GHOST: No ghost state for L =  2
   l= 2   rc=  1.469686   el=  0.013286   Ekb= -0.191752   kbcos= -0.002430

KBgen: Total number of Kleinman-Bylander projectors:   9
atom: -------------------------------------------------------------------------

atom: SANKEY-TYPE ORBITALS:
atom: Selected multiple-zeta basis: split     

SPLIT: Orbitals with angular momentum L= 0

SPLIT: Basis orbitals for state 1s

   izeta = 1
                 lambda =    1.000000
                     rc =    8.344746
                 energy =   -0.465779
                kinetic =    0.845732
    potential(screened) =   -1.311510
       potential(ionic) =   -1.838837

   izeta = 2
                 rmatch =    3.109990
              splitnorm =    0.350000
                 energy =   -0.160019
                kinetic =    1.997292
    potential(screened) =   -2.157310
       potential(ionic) =   -2.744966

POLgen: Perturbative polarization orbital with L=  1

POLgen: Polarization orbital for state 1s

   izeta = 1
                     rc =    8.344746
                 energy =    0.515253
                kinetic =    1.090363
    potential(screened) =   -0.575110
       potential(ionic) =   -1.039027

POLgen: Polarization orbital for state 1s

   izeta = 2
                 rmatch =    3.920748
              splitnorm =    0.350000
                 energy =    1.290977
                kinetic =    2.223025
    potential(screened) =   -0.932048
       potential(ionic) =   -1.458435
atom: Total number of Sankey-type orbitals:  8

atm_pop: Valence configuration (for local Pseudopot. screening):
 1s( 1.00)                                                            
 2p( 0.00)                                                            
Vna: chval, zval:    1.00000   1.00000

Vna:  Cut-off radius for the neutral-atom potential:   8.344746

atom: _________________________________________________________________________

prinput: Basis input 

PAO.BasisType split     

%block ChemicalSpeciesLabel
    1    8 O                       # Species index, atomic number, species label
    2    1 H                       # Species index, atomic number, species label
%endblock ChemicalSpeciesLabel

%block PAO.Basis                 # Define Basis set
# WARNING: This information might be incomplete!
O                     2                    # Species label, number of l-shells
 n=2   0   2                         # n, l, Nzeta 
   6.342      5.078   
   1.000      1.000   
 n=2   1   3 P   1                   # n, l, Nzeta, Polarization, NzetaPol
   4.291      1.763      3.435   
   1.000      1.000      1.000   
H                     1                    # Species label, number of l-shells
 n=1   0   2 P   2                   # n, l, Nzeta, Polarization, NzetaPol
   8.345      3.110   
   1.000      1.000   
%endblock PAO.Basis

prinput: ----------------------------------------------------------------------

Dumping basis to NetCDF file O.ion.nc
Dumping basis to NetCDF file H.ion.nc
coor:   Atomic-coordinates input format  =     Cartesian coordinates
coor:                                          (in Angstroms)

siesta: Atomic coordinates (Bohr) and species
siesta:      0.00000   0.00000   0.00000  1        1
siesta:      1.43052   1.10738   0.00000  2        2
siesta:     -1.43052   1.10738   0.00000  2        3

siesta: System type = slab      

initatomlists: Number of atoms, orbitals, and projectors:      3    32    34

siesta: ******************** Simulation parameters ****************************
siesta:
siesta: The following are some of the parameters of the simulation.
siesta: A complete list of the parameters used, including default values,
siesta: can be found in file out.fdf
siesta:
redata: Spin configuration                          = none
redata: Number of spin components                   = 1
redata: Time-Reversal Symmetry                      = T
redata: Spin spiral                                 = F
redata: Long output                                 =   F
redata: Number of Atomic Species                    =        2
redata: Charge density info will appear in .RHO file
redata: Write Mulliken Pop.                         = NO
redata: Matel table size (NRTAB)                    =     1024
redata: Mesh Cutoff                                 =   100.0000 Ry
redata: Net charge of the system                    =     0.0000 |e|
redata: Min. number of SCF Iter                     =        0
redata: Max. number of SCF Iter                     =        3
redata: SCF mix quantity                            = Hamiltonian
redata: Mix DM or H after convergence               =   F
redata: Recompute H after scf cycle                 =   F
redata: Mix DM in first SCF step                    =   T
redata: Write Pulay info on disk                    =   F
redata: New DM Occupancy tolerance                  = 0.000000000001
redata: No kicks to SCF
redata: DM Mixing Weight for Kicks                  =     0.5000
redata: Require Harris convergence for SCF          =   F
redata: Harris energy tolerance for SCF             =     0.000100 eV
redata: Require DM convergence for SCF              =   T
redata: DM tolerance for SCF                        =     0.000100
redata: Require EDM convergence for SCF             =   F
redata: EDM tolerance for SCF                       =     0.001000 eV
redata: Require H convergence for SCF               =   T
redata: Hamiltonian tolerance for SCF               =     0.001000 eV
redata: Require (free) Energy convergence for SCF   =   F
redata: (free) Energy tolerance for SCF             =     0.000100 eV
redata: Using DFT-D3 dispersion                     =   F
redata: Using Saved Data (generic)                  =   F
redata: Use continuation files for DM               =   F
redata: Neglect nonoverlap interactions             =   F
redata: Method of Calculation                       = Diagonalization
redata: Electronic Temperature                      =   299.9863 K
redata: Fix the spin of the system                  =   F
redata: Max. number of TDED Iter                    =        1
redata: Number of TDED substeps                     =        3
redata: Dynamics option                             = Single-point calculation
mix.SCF: Pulay mixing                            = Pulay
mix.SCF:    Variant                              = stable
mix.SCF:    History steps                        = 2
mix.SCF:    Linear mixing weight                 =     0.250000
mix.SCF:    Mixing weight                        =     0.250000
mix.SCF:    SVD condition                        = 0.1000E-07
redata: Save all siesta data in one NC              =   F
redata: ***********************************************************************

%block SCF.Mixers
  Pulay
%endblock SCF.Mixers

%block SCF.Mixer.Pulay
  # Mixing method
  method pulay
  variant stable

  # Mixing options
  weight 0.2500
  weight.linear 0.2500
  history 2
%endblock SCF.Mixer.Pulay

DM_history_depth set to one: no extrapolation allowed by default for geometry relaxation
Size of DM history Fstack: 1
Total number of electrons:     8.000000
Total ionic charge:     8.000000

siesta: k-grid: Number of k-points = 1
siesta: k-point is Gamma-only

diag: Algorithm                                     = D&C
diag: Used triangular part                          = Lower
diag: Absolute tolerance                            =  0.100E-15
diag: Orthogonalization factor                      =  0.100E-05
diag: Memory factor                                 =  1.0000


ts: **************************************************************
ts: Save H and S matrices                           =    F
ts: Save DM and EDM matrices                        =    F
ts: Only save the overlap matrix S                  =    F
ts: **************************************************************

************************ Begin: TS CHECKS AND WARNINGS ************************
************************ End: TS CHECKS AND WARNINGS **************************


                     ====================================
                        Single-point calculation
                     ====================================

outcell: Unit cell vectors (Ang):
       10.000000    0.000000    0.000000
        0.000000   10.000000    0.000000
        0.000000    0.000000    8.000000

outcell: Cell vector modules (Ang)   :   10.000000   10.000000    8.000000
outcell: Cell angles (23,13,12) (deg):     90.0000     90.0000     90.0000
outcell: Cell volume (Ang**3)        :    800.0000
Gamma-point calculation with interaction between periodic images
Some features might not work optimally:
e.g. DM initialization from atomic data
<dSpData1D:S at geom step 0
  <sparsity:sparsity for geom step 0
    nrows_g=32 nrows=32 sparsity=1.0000 nnzs=1024, refcount: 7>
  <dData1D:(new from dSpData1D) n=1024, refcount: 1>
refcount: 1>
new_DM -- step:     1
Initializing Density Matrix...
DM filled with atomic data:
<dSpData2D:DM initialized from atoms
  <sparsity:sparsity for geom step 0
    nrows_g=32 nrows=32 sparsity=1.0000 nnzs=1024, refcount: 8>
  <dData2D:DM n=1024 m=1, refcount: 1>
refcount: 1>
No. of atoms with KB's overlaping orbs in proc 0. Max # of overlaps:       3      32

InitMesh: MESH = 64 x 64 x 50 = 204800
InitMesh: Mesh cutoff (required, used) =   100.000   107.960 Ry
New grid distribution [1]: sub = 2

stepf: Fermi-Dirac step function

siesta: Program's energy decomposition (eV):
siesta: Ebs     =       -86.455585
siesta: Eions   =       810.513381
siesta: Ena     =       172.765294
siesta: Ekin    =       374.287255
siesta: Enl     =       -70.788129
siesta: Eso     =         0.000000
siesta: Edftu   =         0.000000
siesta: DEna    =       -17.149652
siesta: DUscf   =         2.013418
siesta: DUext   =         0.000000
siesta: Ex      =      -103.624506
siesta: Ec      =       -12.740828
siesta: Exc     =      -116.365334
siesta: EbV     =         0.000000
siesta: eta*DQ  =         0.000000
siesta: Emadel  =         0.000000
siesta: Emeta   =         0.000000
siesta: Emolmec =         0.000000
siesta: Ekinion =         0.000000
siesta: Eharris =      -467.939036
siesta: Etot    =      -465.750530
siesta: FreeEng =      -465.750530

        iscf     Eharris(eV)        E_KS(eV)     FreeEng(eV)     dDmax    Ef(eV) dHmax(eV)
   scf:    1     -467.939036     -465.750530     -465.750530 53.123073 -3.257739  8.181572
timer: Routine,Calls,Time,% = IterSCF        1       0.026   1.15
   scf:    2     -466.909263     -466.447881     -466.447881  1.208486 -1.970917  2.843245
   scf:    3     -466.543825     -466.529539     -466.529539  1.991392 -1.150342  0.362892
SCF_NOT_CONV: SCF did not converge  in maximum number of steps.
Geom step, scf iteration, dmax:    0     3     0.026672

Using DM_out to compute the final energy and forces
No. of atoms with KB's overlaping orbs in proc 0. Max # of overlaps:       3      32

siesta: E_KS(eV) =             -466.5295

siesta: E_KS - E_eggbox =      -466.5295

siesta: Atomic forces (eV/Ang):
----------------------------------------
   Tot    0.000000   -0.034706    0.000000
----------------------------------------
   Max    1.366937
   Res    0.740907    sqrt( Sum f_i^2 / 3N )
----------------------------------------
   Max    1.366937    constrained

Stress tensor Voigt[x,y,z,yz,xz,xy] (kbar):       -3.20       -1.68       -0.31        0.00       -0.00        0.00
(Free)E + p*V (eV/cell)     -465.6660
Target enthalpy (eV/cell)     -466.5295

siesta: Program's energy decomposition (eV):
siesta: Ebs     =      -110.450316
siesta: Eions   =       810.513381
siesta: Ena     =       172.765294
siesta: Ekin    =       348.866074
siesta: Enl     =       -64.153838
siesta: Eso     =         0.000000
siesta: Edftu   =         0.000000
siesta: DEna    =        -2.157958
siesta: DUscf   =         0.746371
siesta: DUext   =         0.000000
siesta: Ex      =       -99.547102
siesta: Ec      =       -12.535000
siesta: Exc     =      -112.082101
siesta: EbV     =         0.000000
siesta: eta*DQ  =         0.000000
siesta: Emadel  =         0.000000
siesta: Emeta   =         0.000000
siesta: Emolmec =         0.000000
siesta: Ekinion =         0.000000
siesta: Eharris =      -466.543825
siesta: Etot    =      -466.529539
siesta: FreeEng =      -466.529539

siesta: Final energy (eV):
siesta:  Band Struct. =    -110.450316
siesta:       Kinetic =     348.866074
siesta:       Hartree =     444.206821
siesta:         Edftu =       0.000000
siesta:       Eso     =       0.000000
siesta:    Ext. field =       0.000000
siesta:         Exch. =     -99.547102
siesta:         Corr. =     -12.535000
siesta:     Bulk bias =       0.000000
siesta:   Exch.-corr. =    -112.082101
siesta:  Ion-electron =   -1200.880764
siesta:       Ion-ion =      53.360431
siesta:       Ekinion =       0.000000
siesta: D3 dispersion =       0.000000
siesta:         Total =    -466.529539
siesta:         Fermi =      -1.150342

siesta: Atomic forces (eV/Ang):
siesta:      1    0.000000   -1.366937    0.000000
siesta:      2    1.045119    0.666116   -0.000000
siesta:      3   -1.045119    0.666116   -0.000000
siesta: ----------------------------------------
siesta:    Tot    0.000000   -0.034706    0.000000

siesta: Stress tensor (static) (eV/Ang**3):
siesta:    -0.001998    0.000000   -0.000000
siesta:     0.000000   -0.001049   -0.000000
siesta:    -0.000000    0.000000   -0.000191

siesta: Cell volume =        800.000000 Ang**3

siesta: Pressure (static):
siesta:                Solid            Molecule  Units
siesta:           0.00001176          0.00000097  Ry/Bohr**3
siesta:           0.00107937          0.00008913  eV/Ang**3
siesta:           1.72933407          0.14280804  kBar
(Free)E+ p_basis*V_orbitals  =        -464.131336
(Free)Eharris+ p_basis*V_orbitals  =        -464.145621

siesta: Electric dipole (a.u.)  =   -0.000000    0.562478   -0.000000
siesta: Electric dipole (Debye) =   -0.000000    1.429677   -0.000000

cite: Please see "custom_softbasis.bib" for an exhaustive BiBTeX file.
cite: Please clearly indicate Siesta version in published work: 5.0.0-alpha-113-ge97739e85-dirty
cite: This calculation has made use of the following articles
cite: which are encouraged to be cited in a published work.
        Primary SIESTA paper
          DOI: www.doi.org/10.1088/0953-8984/14/11/302


timer: Elapsed wall time (sec) =       2.425
timer: CPU execution times (sec):

Routine            Calls   Time/call    Tot.time        %
siesta                 1       2.424       2.424   100.00
Setup                  1       0.089       0.089     3.68
bands                  1       0.000       0.000     0.00
KSV_init               1       0.000       0.000     0.00
IterGeom               1       2.335       2.335    96.30
geom_init              1       2.176       2.176    89.77
state_init             1       0.304       0.304    12.54
hsparse                1       0.000       0.000     0.00
overlap                1       0.304       0.304    12.52
Setup_H0               1       1.846       1.846    76.16
naefs                  2       0.000       0.000     0.01
MolMec                 2       0.000       0.000     0.00
kinefsm                2       0.150       0.300    12.37
nlefsm                 2       0.742       1.483    61.20
DHSCF_Init             1       0.063       0.063     2.61
DHSCF1                 1       0.009       0.009     0.38
INITMESH               1       0.000       0.000     0.00
DHSCF2                 1       0.054       0.054     2.24
REMESH                 1       0.005       0.005     0.20
REORD                 18       0.000       0.003     0.12
PHION                  1       0.033       0.033     1.38
COMM_BSC              23       0.000       0.003     0.12
POISON                 6       0.007       0.044     1.80
fft                   12       0.003       0.036     1.50
setup_H                4       0.025       0.102     4.20
DHSCF                  5       0.036       0.182     7.49
DHSCF3                 5       0.025       0.127     5.25
rhoofd                 5       0.004       0.021     0.85
XC                     5       0.009       0.045     1.86
GXC-CellXC             5       0.009       0.043     1.78
gridxc@cellXC          5       0.009       0.043     1.78
vmat                   5       0.003       0.017     0.69
IterSCF                3       0.026       0.077     3.18
compute_dm             3       0.000       0.001     0.04
diagon                 3       0.000       0.001     0.04
r-eigvec               3       0.000       0.001     0.04
r-buildHS              3       0.000       0.000     0.00
rdiag                  3       0.000       0.001     0.04
rdiag1                 3       0.000       0.000     0.00
rdiag2                 3       0.000       0.000     0.00
rdiag3                 3       0.000       0.001     0.03
rdiag4                 3       0.000       0.000     0.00
r-buildD               3       0.000       0.000     0.00
MIXER                  3       0.000       0.000     0.00
PostSCF                1       0.081       0.081     3.34
DHSCF4                 1       0.054       0.054     2.24
dfscf                  1       0.046       0.046     1.88
overfsm                1       0.000       0.000     0.01
state_analysis         1       0.000       0.000     0.01
siesta_move            1       0.000       0.000     0.00
Analysis               1       0.000       0.000     0.01
optical                1       0.000       0.000     0.00
  

>> End of run:  29-SEP-2023  11:49:18
Job completed
