Siesta Version  : 5.0.0-alpha-123-gfb8fd7d02
Architecture    : ----
Compiler version: GNU-11.4.0
Compiler flags  : -fallow-argument-mismatch;-O3 -march=native
PP flags        : ----
Libraries       : ----
Parallelisations: none
GEMM3M support
NetCDF support
NetCDF-4 support
Lua support

Runtime information:
* Directory : /home/fnpedron/Siesta/siesta-dev/Tests/13.MiscOptions/work/net_charge_dope
* Running in serial mode.
>> Start of run:  28-SEP-2023  15:40:10

                           *********************** 
                           *  WELCOME TO SIESTA  * 
                           *********************** 

reinit: Reading from standard input
reinit: Dumping input in INPUT_TMP.04015
************************** Dump of input data file ****************************
%include ../../basejob.fdf
SystemLabel     net_charge_dope
NetCharge -1
Slab.DipoleCorrection T
SimulateDoping        T
SCF.MustConverge F
MaxSCFIterations 30
************************** End of input data file *****************************

reinit: -----------------------------------------------------------------------
reinit: System Name: 2 Water molecules
reinit: -----------------------------------------------------------------------
reinit: System Label: net_charge_dope
reinit: -----------------------------------------------------------------------

initatom: Reading input for the pseudopotentials and atomic orbitals ----------
Species number:   1 Atomic number:    8 Label: O
Species number:   2 Atomic number:    1 Label: H


---- Processing specs for species: O
Ground state valence configuration:   2s02  2p04
Reading pseudopotential information in formatted form from:
  /home/fnpedron/Siesta/siesta-dev/Tests/Pseudos/O.psf

---- Processing specs for species: H
Ground state valence configuration:   1s01
Reading pseudopotential information in formatted form from:
  /home/fnpedron/Siesta/siesta-dev/Tests/Pseudos/H.psf

---- Pseudopotential check for O 

Pseudized shells:
2s( 2.00) rc: 1.14
2p( 4.00) rc: 1.14
3d( 0.00) rc: 1.14
4f( 0.00) rc: 1.14
Valence configuration for ps generation: (assumed as above)

---- Pseudopotential check for H 

Pseudized shells:
1s( 1.00) rc: 1.25
2p( 0.00) rc: 1.25
3d( 0.00) rc: 1.25
4f( 0.00) rc: 1.25
Valence configuration for ps generation: (assumed as above)
For O, standard SIESTA heuristics set lmxkb to 3
 (one more than the basis l, including polarization orbitals).
Use PS.lmax or PS.KBprojectors blocks to override.
For H, standard SIESTA heuristics set lmxkb to 2
 (one more than the basis l, including polarization orbitals).
Use PS.lmax or PS.KBprojectors blocks to override.

<basis_specs>
===============================================================================
O                    Z=   8    Mass=  15.999        Charge= 0.17977+309
Lmxo=2 Lmxkb= 3    BasisType=split      Semic=F
L=0  Nsemic=0  Cnfigmx=2
          i=1  nzeta=1  polorb=0  (2s)
            splnorm:   0.15000    
               vcte:    40.000    
               rinn:  -0.90000    
               qcoe:    0.0000    
               qyuk:    0.0000    
               qwid:   0.10000E-01
                rcs:    0.0000    
            lambdas:    1.0000    
L=1  Nsemic=0  Cnfigmx=2
          i=1  nzeta=1  polorb=1  (2p)  (to be polarized perturbatively)
            splnorm:   0.15000    
               vcte:    40.000    
               rinn:  -0.90000    
               qcoe:    0.0000    
               qyuk:    0.0000    
               qwid:   0.10000E-01
                rcs:    0.0000    
            lambdas:    1.0000    
L=2  Nsemic=0  Cnfigmx=3
          i=1  nzeta=0  polorb=0  (3d)  (perturbative polarization orbital) (from 2p)
-------------------------------------------------------------------------------
L=0  Nkbl=1  erefs: 0.17977+309
L=1  Nkbl=1  erefs: 0.17977+309
L=2  Nkbl=1  erefs: 0.17977+309
L=3  Nkbl=1  erefs: 0.17977+309
===============================================================================
</basis_specs>

Using PAO.SplitTailNorm
atom: Called for O                     (Z =   8)
Maximum radius (at nrval) set to   50.00000 8518

read_vps: Pseudopotential generation method:
read_vps: ATM3      Troullier-Martins                       
Valence charge in pseudo generation:    6.00000

xc_check: Exchange-correlation functional:
xc_check: Ceperley-Alder
V l=0 = -2*Zval/r beyond r=  1.1366
V l=1 = -2*Zval/r beyond r=  1.1332
V l=2 = -2*Zval/r beyond r=  1.1298
V l=3 = -2*Zval/r beyond r=  1.1264
All V_l potentials equal beyond r=  1.1355
This should be close to max(r_c) in ps generation
All pots = -2*Zval/r beyond r=  1.1366
Using small-core scheme (local charge) for Vlocal

VLOCAL_FROM_CHLOCAL: 99.0% of the norm of Vloc inside     33.667 Ry
VLOCAL_FROM_CHLOCAL: 99.9% of the norm of Vloc inside     76.727 Ry
atom: Maximum radius for chlocal:    1.37241
atom: Maximum radius for r*vlocal+2*Zval:    1.25469

KBgen: Kleinman-Bylander projectors: 
GHOST: No ghost state for L =  0
   l= 0   rc=  1.293209   el= -1.742414   Ekb=  9.076872   kbcos=  0.325320
GHOST: No ghost state for L =  1
   l= 1   rc=  1.284119   el= -0.676589   Ekb= -8.194485   kbcos= -0.396010
GHOST: No ghost state for L =  2
   l= 2   rc=  1.433152   el=  0.013307   Ekb= -2.071665   kbcos= -0.003690
GHOST: No ghost state for L =  3
   l= 3   rc=  1.540891   el=  0.019584   Ekb= -0.817137   kbcos= -0.000371

KBgen: Total number of Kleinman-Bylander projectors:  16
atom: -------------------------------------------------------------------------

atom: SANKEY-TYPE ORBITALS:

SPLIT: Orbitals with angular momentum L= 0

SPLIT: Basis orbitals for state 2s

SPLIT: PAO cut-off radius determined from an
SPLIT: energy shift=  0.010000 Ry
Split based on tail norm

   izeta = 1
                 lambda =    1.000000
                     rc =    3.560943
                 energy =   -1.731321
                kinetic =    1.587329
    potential(screened) =   -3.318651
       potential(ionic) =  -11.260325

SPLIT: Orbitals with angular momentum L= 1

SPLIT: Basis orbitals for state 2p

SPLIT: PAO cut-off radius determined from an
SPLIT: energy shift=  0.010000 Ry
Split based on tail norm

   izeta = 1
                 lambda =    1.000000
                     rc =    4.290924
                 energy =   -0.665565
                kinetic =    4.934810
    potential(screened) =   -5.600376
       potential(ionic) =  -13.346429

POLgen: Perturbative polarization orbital with L=  2

POLgen: Polarization orbital for state 2p
Split based on tail norm

   izeta = 1
                     rc =    4.290924
                 energy =    2.236783
                kinetic =    4.278617
    potential(screened) =   -2.041834
       potential(ionic) =   -8.171412
atom: Total number of Sankey-type orbitals:  9

atm_pop: Valence configuration (for local Pseudopot. screening):
 2s( 2.00)                                                            
 2p( 4.00)                                                            
 3d( 0.00)                                                            
Vna: chval, zval:    6.00000   6.00000

Vna:  Cut-off radius for the neutral-atom potential:   4.290924

atom: _________________________________________________________________________

<basis_specs>
===============================================================================
H                    Z=   1    Mass=  1.0080        Charge= 0.17977+309
Lmxo=1 Lmxkb= 2    BasisType=split      Semic=F
L=0  Nsemic=0  Cnfigmx=1
          i=1  nzeta=1  polorb=1  (1s)  (to be polarized perturbatively)
            splnorm:   0.15000    
               vcte:    40.000    
               rinn:  -0.90000    
               qcoe:    0.0000    
               qyuk:    0.0000    
               qwid:   0.10000E-01
                rcs:    0.0000    
            lambdas:    1.0000    
L=1  Nsemic=0  Cnfigmx=2
          i=1  nzeta=0  polorb=0  (2p)  (perturbative polarization orbital) (from 1s)
-------------------------------------------------------------------------------
L=0  Nkbl=1  erefs: 0.17977+309
L=1  Nkbl=1  erefs: 0.17977+309
L=2  Nkbl=1  erefs: 0.17977+309
===============================================================================
</basis_specs>

Using PAO.SplitTailNorm
atom: Called for H                     (Z =   1)
Maximum radius (at nrval) set to   50.00000 8518

read_vps: Pseudopotential generation method:
read_vps: ATM3      Troullier-Martins                       
Valence charge in pseudo generation:    1.00000

xc_check: Exchange-correlation functional:
xc_check: Ceperley-Alder
V l=0 = -2*Zval/r beyond r=  1.2384
V l=1 = -2*Zval/r beyond r=  1.2321
V l=2 = -2*Zval/r beyond r=  1.2272
All V_l potentials equal beyond r=  1.2371
This should be close to max(r_c) in ps generation
All pots = -2*Zval/r beyond r=  1.2384
Using small-core scheme (local charge) for Vlocal

VLOCAL_FROM_CHLOCAL: 99.0% of the norm of Vloc inside     28.363 Ry
VLOCAL_FROM_CHLOCAL: 99.9% of the norm of Vloc inside     64.639 Ry
atom: Maximum radius for chlocal:    1.44620
atom: Maximum radius for r*vlocal+2*Zval:    1.31026

KBgen: Kleinman-Bylander projectors: 
GHOST: No ghost state for L =  0
   l= 0   rc=  1.364142   el= -0.467325   Ekb= -2.009475   kbcos= -0.336680
GHOST: No ghost state for L =  1
   l= 1   rc=  1.430269   el=  0.007562   Ekb= -0.503817   kbcos= -0.022554
GHOST: No ghost state for L =  2
   l= 2   rc=  1.469686   el=  0.013286   Ekb= -0.191752   kbcos= -0.002430

KBgen: Total number of Kleinman-Bylander projectors:   9
atom: -------------------------------------------------------------------------

atom: SANKEY-TYPE ORBITALS:

SPLIT: Orbitals with angular momentum L= 0

SPLIT: Basis orbitals for state 1s

SPLIT: PAO cut-off radius determined from an
SPLIT: energy shift=  0.010000 Ry
Split based on tail norm

   izeta = 1
                 lambda =    1.000000
                     rc =    5.285354
                 energy =   -0.456120
                kinetic =    0.900445
    potential(screened) =   -1.356565
       potential(ionic) =   -1.890080

POLgen: Perturbative polarization orbital with L=  1

POLgen: Polarization orbital for state 1s
Split based on tail norm

   izeta = 1
                     rc =    5.285354
                 energy =    0.642323
                kinetic =    1.282472
    potential(screened) =   -0.640149
       potential(ionic) =   -1.117275
atom: Total number of Sankey-type orbitals:  4

atm_pop: Valence configuration (for local Pseudopot. screening):
 1s( 1.00)                                                            
 2p( 0.00)                                                            
Vna: chval, zval:    1.00000   1.00000

Vna:  Cut-off radius for the neutral-atom potential:   5.285354

atom: _________________________________________________________________________

prinput: Basis input 

PAO.BasisType split     

%block ChemicalSpeciesLabel
    1    8 O                       # Species index, atomic number, species label
    2    1 H                       # Species index, atomic number, species label
%endblock ChemicalSpeciesLabel

%block PAO.Basis                 # Define Basis set
# WARNING: This information might be incomplete!
O                     2                    # Species label, number of l-shells
 n=2   0   1                         # n, l, Nzeta 
   3.561   
   1.000   
 n=2   1   1 P   1                   # n, l, Nzeta, Polarization, NzetaPol
   4.291   
   1.000   
H                     1                    # Species label, number of l-shells
 n=1   0   1 P   1                   # n, l, Nzeta, Polarization, NzetaPol
   5.285   
   1.000   
%endblock PAO.Basis

prinput: ----------------------------------------------------------------------

Dumping basis to NetCDF file O.ion.nc
Dumping basis to NetCDF file H.ion.nc
coor:   Atomic-coordinates input format  =     Cartesian coordinates
coor:                                          (in Angstroms)

siesta: Atomic coordinates (Bohr) and species
siesta:      0.00000   0.00000   0.00000  1        1
siesta:      1.43052   1.10738   0.00000  2        2
siesta:     -1.43052   1.10738   0.00000  2        3
siesta:      0.00000   9.44863   0.00000  1        4
siesta:      1.43052   8.34125   0.00000  2        5
siesta:     -1.43052   8.34125   0.00000  2        6

siesta: System type = slab      

initatomlists: Number of atoms, orbitals, and projectors:      6    34    68

siesta: ******************** Simulation parameters ****************************
siesta:
siesta: The following are some of the parameters of the simulation.
siesta: A complete list of the parameters used, including default values,
siesta: can be found in file out.fdf
siesta:
redata: Spin configuration                          = none
redata: Number of spin components                   = 1
redata: Time-Reversal Symmetry                      = T
redata: Spin spiral                                 = F
redata: Long output                                 =   F
redata: Number of Atomic Species                    =        2
redata: Charge density info will appear in .RHO file
redata: Write Mulliken Pop.                         = NO
redata: Matel table size (NRTAB)                    =     1024
redata: Mesh Cutoff                                 =   300.0000 Ry
redata: Net charge of the system                    =    -1.0000 |e|
redata: Min. number of SCF Iter                     =        0
redata: Max. number of SCF Iter                     =       30
redata: SCF mix quantity                            = Hamiltonian
redata: Mix DM or H after convergence               =   F
redata: Recompute H after scf cycle                 =   F
redata: Mix DM in first SCF step                    =   T
redata: Write Pulay info on disk                    =   F
redata: New DM Occupancy tolerance                  = 0.000000000001
redata: No kicks to SCF
redata: DM Mixing Weight for Kicks                  =     0.5000
redata: Require Harris convergence for SCF          =   F
redata: Harris energy tolerance for SCF             =     0.000100 eV
redata: Require DM convergence for SCF              =   T
redata: DM tolerance for SCF                        =     0.000100
redata: Require EDM convergence for SCF             =   F
redata: EDM tolerance for SCF                       =     0.001000 eV
redata: Require H convergence for SCF               =   T
redata: Hamiltonian tolerance for SCF               =     0.001000 eV
redata: Require (free) Energy convergence for SCF   =   F
redata: (free) Energy tolerance for SCF             =     0.000100 eV
redata: Using DFT-D3 dispersion                     =   F
redata: Using Saved Data (generic)                  =   F
redata: Use continuation files for DM               =   F
redata: Neglect nonoverlap interactions             =   F
redata: Method of Calculation                       = Diagonalization
redata: Electronic Temperature                      =   299.9863 K
redata: Fix the spin of the system                  =   F
redata: Max. number of TDED Iter                    =        1
redata: Number of TDED substeps                     =        3
redata: Dynamics option                             = Single-point calculation
mix.SCF: Pulay mixing                            = Pulay
mix.SCF:    Variant                              = stable
mix.SCF:    History steps                        = 2
mix.SCF:    Linear mixing weight                 =     0.250000
mix.SCF:    Mixing weight                        =     0.250000
mix.SCF:    SVD condition                        = 0.1000E-07
redata: Save all siesta data in one NC              =   F
redata: ***********************************************************************

%block SCF.Mixers
  Pulay
%endblock SCF.Mixers

%block SCF.Mixer.Pulay
  # Mixing method
  method pulay
  variant stable

  # Mixing options
  weight 0.2500
  weight.linear 0.2500
  history 2
%endblock SCF.Mixer.Pulay

DM_history_depth set to one: no extrapolation allowed by default for geometry relaxation
Size of DM history Fstack: 1
Total number of electrons:    17.000000
Total ionic charge:    16.000000
madelung: WARNING: Charged system, but not an atom or molecule.
madelung: WARNING: Energy correction terms can not be applied. 
madelung: WARNING: Continue only if you really know what you are doing.

siesta: k-grid: Number of k-points = 1
siesta: k-point is Gamma-only

diag: Algorithm                                     = D&C
diag: Used triangular part                          = Lower
diag: Absolute tolerance                            =  0.100E-15
diag: Orthogonalization factor                      =  0.100E-05
diag: Memory factor                                 =  1.0000


ts: **************************************************************
ts: Save H and S matrices                           =    F
ts: Save DM and EDM matrices                        =    F
ts: Only save the overlap matrix S                  =    F
ts: **************************************************************

************************ Begin: TS CHECKS AND WARNINGS ************************
************************ End: TS CHECKS AND WARNINGS **************************


                     ====================================
                        Single-point calculation
                     ====================================

outcell: Unit cell vectors (Ang):
        3.000000    0.000000    0.000000
        0.000000   30.000000    0.000000
        0.000000    0.000000    5.000000

outcell: Cell vector modules (Ang)   :    3.000000   30.000000    5.000000
outcell: Cell angles (23,13,12) (deg):     90.0000     90.0000     90.0000
outcell: Cell volume (Ang**3)        :    450.0000
Gamma-point calculation with interaction between periodic images
Some features might not work optimally:
e.g. DM initialization from atomic data
<dSpData1D:S at geom step 0
  <sparsity:sparsity for geom step 0
    nrows_g=34 nrows=34 sparsity=.8599 nnzs=994, refcount: 7>
  <dData1D:(new from dSpData1D) n=994, refcount: 1>
refcount: 1>
new_DM -- step:     1
Initializing Density Matrix...
DM filled with atomic data:
<dSpData2D:DM initialized from atoms
  <sparsity:sparsity for geom step 0
    nrows_g=34 nrows=34 sparsity=.8599 nnzs=994, refcount: 8>
  <dData2D:DM n=994 m=1, refcount: 1>
refcount: 1>
Note: For starting DM, Qtot, Tr[D*S] =         17.00000000         16.00000000
No. of atoms with KB's overlaping orbs in proc 0. Max # of overlaps:       6      41

InitMesh: MESH = 32 x 320 x 54 = 552960
InitMesh: Mesh cutoff (required, used) =   300.000   314.456 Ry
New grid distribution [1]: sub = 2

doping: SimulateDoping = .true. in input file
doping: Neutralizing background will be added to points
doping: other than vacuum, to simulate doping

dipole: A dipole layer will be introduced in the vacuum
dipole: region to compensate the system dipole
Dipole moment in unit cell =       0.0000       0.0072       0.0000 D
Electric field for dipole correction =    -0.000000    -0.000602    -0.000000 eV/Ang/e

stepf: Fermi-Dirac step function
Dipole moment in unit cell =      -0.0000      -0.1801      -0.0000 D
Electric field for dipole correction =     0.000000     0.015078     0.000000 eV/Ang/e

siesta: Program's energy decomposition (eV):
siesta: Ebs     =      -250.398288
siesta: Eions   =      1621.026762
siesta: Ena     =       347.677440
siesta: Ekin    =       703.182297
siesta: Enl     =      -123.687601
siesta: Eso     =         0.000000
siesta: Edftu   =         0.000000
siesta: DEna    =        -4.463558
siesta: DUscf   =         0.459040
siesta: DUext   =         0.000283
siesta: Ex      =      -204.553445
siesta: Ec      =       -26.305472
siesta: Exc     =      -230.858917
siesta: EbV     =         0.000000
siesta: eta*DQ  =         0.000000
siesta: Emadel  =         0.000000
siesta: Emeta   =         0.000000
siesta: Emolmec =         0.000000
siesta: Ekinion =         0.000000
siesta: Eharris =      -911.193012
siesta: Etot    =      -928.717779
siesta: FreeEng =      -928.753616

        iscf     Eharris(eV)        E_KS(eV)     FreeEng(eV)     dDmax    Ef(eV) dHmax(eV)
   scf:    1     -911.193012     -928.717779     -928.753616  0.677412 -1.497246  2.748371
timer: Routine,Calls,Time,% = IterSCF        1       0.067   7.97
Dipole moment in unit cell =       0.0000       6.1371       0.0000 D
Electric field for dipole correction =    -0.000000    -0.513785    -0.000000 eV/Ang/e
   scf:    2     -916.306499     -925.085299     -925.121136  0.341233 -2.166470 12.667003
Dipole moment in unit cell =      -0.0000      -2.8829      -0.0000 D
Electric field for dipole correction =     0.000000     0.241349     0.000000 eV/Ang/e
   scf:    3     -925.590584     -928.650420     -928.686257  0.324309 -1.718637  5.015677
Dipole moment in unit cell =       0.0000       1.2857       0.0000 D
Electric field for dipole correction =    -0.000000    -0.107632    -0.000000 eV/Ang/e
   scf:    4     -928.395259     -929.114174     -929.150011  0.111612 -1.947236  2.095424
Dipole moment in unit cell =      -0.0000      -0.0843      -0.0000 D
Electric field for dipole correction =     0.000000     0.007055     0.000000 eV/Ang/e
   scf:    5     -929.227660     -929.235847     -929.271684  0.038159 -1.954038  0.309068
Dipole moment in unit cell =       0.0000       0.0144       0.0000 D
Electric field for dipole correction =    -0.000000    -0.001205    -0.000000 eV/Ang/e
   scf:    6     -929.237739     -929.237142     -929.272979  0.002371 -2.007781  0.141168
Dipole moment in unit cell =      -0.0000      -0.2788      -0.0000 D
Electric field for dipole correction =     0.000000     0.023341     0.000000 eV/Ang/e
   scf:    7     -929.221602     -929.232220     -929.268057  0.006097 -2.049241  0.490563
Dipole moment in unit cell =       0.0000       0.0652       0.0000 D
Electric field for dipole correction =    -0.000000    -0.005461    -0.000000 eV/Ang/e
   scf:    8     -929.234459     -929.237242     -929.273079  0.006693 -2.045718  0.175437
Dipole moment in unit cell =      -0.0000      -0.0016      -0.0000 D
Electric field for dipole correction =     0.000000     0.000131     0.000000 eV/Ang/e
   scf:    9     -929.237795     -929.237669     -929.273505  0.001390 -2.070232  0.065124
Dipole moment in unit cell =       0.0000       0.0769       0.0000 D
Electric field for dipole correction =    -0.000000    -0.006439    -0.000000 eV/Ang/e
   scf:   10     -929.236670     -929.237373     -929.273210  0.001513 -2.087640  0.148508
Dipole moment in unit cell =      -0.0000      -0.0496      -0.0000 D
Electric field for dipole correction =     0.000000     0.004149     0.000000 eV/Ang/e
   scf:   11     -929.236716     -929.237575     -929.273411  0.002451 -2.088118  0.116075
Dipole moment in unit cell =      -0.0000      -0.0011      -0.0000 D
Electric field for dipole correction =     0.000000     0.000090     0.000000 eV/Ang/e
   scf:   12     -929.237847     -929.237786     -929.273623  0.000946 -2.099139  0.033643
Dipole moment in unit cell =      -0.0000      -0.0219      -0.0000 D
Electric field for dipole correction =     0.000000     0.001833     0.000000 eV/Ang/e
   scf:   13     -929.237726     -929.237773     -929.273610  0.000444 -2.107954  0.054605
Dipole moment in unit cell =       0.0000       0.0410       0.0000 D
Electric field for dipole correction =    -0.000000    -0.003429    -0.000000 eV/Ang/e
   scf:   14     -929.237382     -929.237706     -929.273542  0.001219 -2.107138  0.075678
Dipole moment in unit cell =       0.0000       0.0013       0.0000 D
Electric field for dipole correction =    -0.000000    -0.000106    -0.000000 eV/Ang/e
   scf:   15     -929.237823     -929.237816     -929.273653  0.000780 -2.113065  0.015492
Dipole moment in unit cell =       0.0000       0.0079       0.0000 D
Electric field for dipole correction =    -0.000000    -0.000665    -0.000000 eV/Ang/e
   scf:   16     -929.237819     -929.237819     -929.273656  0.000152 -2.116870  0.017718
Dipole moment in unit cell =      -0.0000      -0.0212      -0.0000 D
Electric field for dipole correction =     0.000000     0.001774     0.000000 eV/Ang/e
   scf:   17     -929.237700     -929.237790     -929.273627  0.000567 -2.118287  0.042776
Dipole moment in unit cell =       0.0000       0.0029       0.0000 D
Electric field for dipole correction =    -0.000000    -0.000244    -0.000000 eV/Ang/e
   scf:   18     -929.237825     -929.237824     -929.273661  0.000470 -2.119846  0.007415
Dipole moment in unit cell =       0.0000       0.0002       0.0000 D
Electric field for dipole correction =    -0.000000    -0.000016    -0.000000 eV/Ang/e
   scf:   19     -929.237826     -929.237825     -929.273662  0.000065 -2.121768  0.008078
Dipole moment in unit cell =       0.0000       0.0148       0.0000 D
Electric field for dipole correction =    -0.000000    -0.001239    -0.000000 eV/Ang/e
   scf:   20     -929.237792     -929.237815     -929.273652  0.000285 -2.122655  0.021908
Dipole moment in unit cell =       0.0000       0.0009       0.0000 D
Electric field for dipole correction =    -0.000000    -0.000078    -0.000000 eV/Ang/e
   scf:   21     -929.237824     -929.237826     -929.273663  0.000270 -2.123267  0.005500
Dipole moment in unit cell =       0.0000       0.0025       0.0000 D
Electric field for dipole correction =    -0.000000    -0.000209    -0.000000 eV/Ang/e
   scf:   22     -929.237827     -929.237827     -929.273663  0.000035 -2.124199  0.002548
Dipole moment in unit cell =      -0.0000      -0.0023      -0.0000 D
Electric field for dipole correction =     0.000000     0.000189     0.000000 eV/Ang/e
   scf:   23     -929.237823     -929.237825     -929.273662  0.000095 -2.125058  0.008388
Dipole moment in unit cell =       0.0000       0.0035       0.0000 D
Electric field for dipole correction =    -0.000000    -0.000295    -0.000000 eV/Ang/e
   scf:   24     -929.237826     -929.237827     -929.273663  0.000112 -2.124946  0.003332
Dipole moment in unit cell =       0.0000       0.0023       0.0000 D
Electric field for dipole correction =    -0.000000    -0.000192    -0.000000 eV/Ang/e
   scf:   25     -929.237827     -929.237827     -929.273664  0.000026 -2.125473  0.001357
Dipole moment in unit cell =       0.0000       0.0039       0.0000 D
Electric field for dipole correction =    -0.000000    -0.000328    -0.000000 eV/Ang/e
   scf:   26     -929.237826     -929.237827     -929.273664  0.000033 -2.125855  0.003055
Dipole moment in unit cell =       0.0000       0.0013       0.0000 D
Electric field for dipole correction =    -0.000000    -0.000113    -0.000000 eV/Ang/e
   scf:   27     -929.237826     -929.237827     -929.273664  0.000050 -2.125870  0.002358
Dipole moment in unit cell =       0.0000       0.0023       0.0000 D
Electric field for dipole correction =    -0.000000    -0.000192    -0.000000 eV/Ang/e
   scf:   28     -929.237827     -929.237827     -929.273664  0.000020 -2.126121  0.000737

SCF Convergence by DM+H criterion
max |DM_out - DM_in|         :     0.0000195510
max |H_out - H_in|      (eV) :     0.0007368903
SCF cycle converged after 28 iterations

Using DM_out to compute the final energy and forces
No. of atoms with KB's overlaping orbs in proc 0. Max # of overlaps:       6      41
Dipole moment in unit cell =       0.0000       0.0023       0.0000 D
Electric field for dipole correction =    -0.000000    -0.000192    -0.000000 eV/Ang/e

siesta: E_KS(eV) =             -929.2378

siesta: E_KS - E_eggbox =      -929.2378

siesta: Atomic forces (eV/Ang):
----------------------------------------
   Tot   -0.000000   -0.000948   -0.000000
----------------------------------------
   Max    4.422076
   Res    2.431584    sqrt( Sum f_i^2 / 3N )
----------------------------------------
   Max    4.422076    constrained

Stress tensor Voigt[x,y,z,yz,xz,xy] (kbar):      -73.08      -10.65        0.88        0.00        0.00       -0.00
(Free)E + p*V (eV/cell)     -921.5173
Target enthalpy (eV/cell)     -929.2737

siesta: Program's energy decomposition (eV):
siesta: Ebs     =      -235.667548
siesta: Eions   =      1621.026762
siesta: Ena     =       347.677440
siesta: Ekin    =       727.175945
siesta: Enl     =      -129.759396
siesta: Eso     =         0.000000
siesta: Edftu   =         0.000000
siesta: DEna    =       -19.412398
siesta: DUscf   =         0.909875
siesta: DUext   =         0.000000
siesta: Ex      =      -208.321691
siesta: Ec      =       -26.480840
siesta: Exc     =      -234.802531
siesta: EbV     =         0.000000
siesta: eta*DQ  =         0.000000
siesta: Emadel  =         0.000000
siesta: Emeta   =         0.000000
siesta: Emolmec =         0.000000
siesta: Ekinion =         0.000000
siesta: Eharris =      -929.237827
siesta: Etot    =      -929.237827
siesta: FreeEng =      -929.273664

siesta: Final energy (eV):
siesta:  Band Struct. =    -235.667548
siesta:       Kinetic =     727.175945
siesta:       Hartree =    2617.361141
siesta:         Edftu =       0.000000
siesta:       Eso     =       0.000000
siesta:    Ext. field =       0.000000
siesta:         Exch. =    -208.321691
siesta:         Corr. =     -26.480840
siesta:     Bulk bias =       0.000000
siesta:   Exch.-corr. =    -234.802531
siesta:  Ion-electron =   -5889.988269
siesta:       Ion-ion =    1851.015886
siesta:       Ekinion =       0.000000
siesta: D3 dispersion =       0.000000
siesta:         Total =    -929.237827
siesta:         Fermi =      -2.126121

siesta: Atomic forces (eV/Ang):
siesta:      1    0.000000   -4.421802   -0.000000
siesta:      2    3.236858    2.518161    0.000000
siesta:      3   -3.236858    2.518161    0.000000
siesta:      4    0.000000    4.422076   -0.000000
siesta:      5    3.239951   -2.518772    0.000000
siesta:      6   -3.239951   -2.518772    0.000000
siesta: ----------------------------------------
siesta:    Tot   -0.000000   -0.000948   -0.000000

siesta: Stress tensor (static) (eV/Ang**3):
siesta:    -0.045613   -0.000000    0.000000
siesta:    -0.000000   -0.006648    0.000000
siesta:     0.000000    0.000000    0.000552

siesta: Cell volume =        450.000000 Ang**3

siesta: Pressure (static):
siesta:                Solid            Molecule  Units
siesta:           0.00018773          0.00008580  Ry/Bohr**3
siesta:           0.01723641          0.00787774  eV/Ang**3
siesta:          27.61577716         12.62153566  kBar
(Free)E+ p_basis*V_orbitals  =        -928.043610
(Free)Eharris+ p_basis*V_orbitals  =        -928.043610

siesta: Electric dipole (a.u.)  =    0.000000    0.000904    0.000000
siesta: Electric dipole (Debye) =    0.000000    0.002298    0.000000

cite: Please see "net_charge_dope.bib" for an exhaustive BiBTeX file.
cite: Please clearly indicate Siesta version in published work: 5.0.0-alpha-123-gfb8fd7d02
cite: This calculation has made use of the following articles
cite: which are encouraged to be cited in a published work.
        Primary SIESTA paper
          DOI: www.doi.org/10.1088/0953-8984/14/11/302
        Slab-dipole correction
          DOI: www.doi.org/10.1103/PhysRevB.59.12301


timer: Elapsed wall time (sec) =       2.965
timer: CPU execution times (sec):

Routine            Calls   Time/call    Tot.time        %
siesta                 1       2.964       2.964   100.00
Setup                  1       0.068       0.068     2.29
bands                  1       0.000       0.000     0.00
KSV_init               1       0.000       0.000     0.00
IterGeom               1       2.896       2.896    97.70
geom_init              1       0.704       0.704    23.74
state_init             1       0.049       0.049     1.65
hsparse                1       0.000       0.000     0.01
overlap                1       0.048       0.048     1.63
Setup_H0               1       0.590       0.590    19.89
naefs                  2       0.000       0.000     0.01
MolMec                 2       0.000       0.000     0.00
kinefsm                2       0.023       0.047     1.58
nlefsm                 2       0.205       0.409    13.80
DHSCF_Init             1       0.136       0.136     4.58
DHSCF1                 1       0.013       0.013     0.44
INITMESH               1       0.000       0.000     0.00
DHSCF2                 1       0.123       0.123     4.14
REMESH                 1       0.006       0.006     0.21
REORD                 68       0.000       0.031     1.05
PHION                  1       0.085       0.085     2.87
COMM_BSC             123       0.000       0.045     1.52
POISON                31       0.013       0.413    13.92
fft                   62       0.005       0.293     9.88
setup_H               29       0.066       1.905    64.27
DHSCF                 30       0.075       2.242    75.65
DHSCF3                30       0.066       1.967    66.36
rhoofd                30       0.018       0.539    18.17
XC                    30       0.014       0.418    14.10
GXC-CellXC            30       0.013       0.376    12.70
gridxc@cellXC         30       0.013       0.376    12.69
vmat                  30       0.013       0.397    13.40
IterSCF               28       0.066       1.848    62.35
compute_dm            28       0.000       0.005     0.17
diagon                28       0.000       0.005     0.17
r-eigvec              28       0.000       0.004     0.14
r-buildHS             28       0.000       0.000     0.00
rdiag                 28       0.000       0.004     0.13
rdiag1                28       0.000       0.000     0.02
rdiag2                28       0.000       0.000     0.01
rdiag3                28       0.000       0.003     0.08
rdiag4                28       0.000       0.000     0.01
r-buildD              28       0.000       0.001     0.02
MIXER                 27       0.000       0.000     0.01
PostSCF                1       0.344       0.344    11.59
DHSCF4                 1       0.275       0.275     9.28
dfscf                  1       0.254       0.254     8.57
overfsm                1       0.001       0.001     0.02
state_analysis         1       0.000       0.000     0.01
siesta_move            1       0.000       0.000     0.00
Analysis               1       0.000       0.000     0.01
optical                1       0.000       0.000     0.00
  

>> End of run:  28-SEP-2023  15:40:13
Job completed
