Executable      : /home/fnpedron/Siesta/siesta-dev/_build_serial/Src/siesta
Version         : 5.2.0-17-gad84d481e
Architecture    : x86_64
Compiler version: GNU-11.4.0
Compiler flags  : -fallow-argument-mismatch -O3 -march=native
Environment variables: 
  SIESTA_PS_PATH: /home/fnpedron/Siesta/siesta-dev/Tests/Pseudos
Parallelisations: none
NetCDF support
NetCDF-4 support
Lua support
DFT-D3 support

Runtime information:
* Directory : /home/fnpedron/Siesta/siesta-dev/_build_serial/Tests/04.SCFMixing/broyden/work
* Running in serial mode.
>> Start of run:  17-JAN-2025  13:13:48

                           *********************** 
                           *  WELCOME TO SIESTA  * 
                           *********************** 

 NOTE: Siesta V5 introduces some new defaults for basis-set generation
 NOTE: which might lead to slightly different numerical results.
 NOTE: Please see the manual for full details and compatibility measures.


reinit: Reading from file ../../broyden.fdf

reinit: -----------------------------------------------------------------------
reinit: System Name: Linear Fe3 cluster.
reinit: -----------------------------------------------------------------------
reinit: System Label: broyden
reinit: -----------------------------------------------------------------------

NOTE on units for spin output: 
{S} is the spin magnetic moment, in units of the Bohr magneton,
assuming a g-factor for the electron spin of exactly 2.
The spin magnetic moment is then numerically equal to the charge inbalance,
in units of electrons, between the spin-up and -down channels.


initatom: Reading input for the pseudopotentials and atomic orbitals ----------
Species number:   1 Atomic number:   26 Label: Fe_nc

Ground state valence configuration (from tables):   4s02  4p00  3d06  4f00

---- Processing specs for species: Fe_nc
Reading pseudopotential information in formatted form from:
  /home/fnpedron/Siesta/siesta-dev/Tests/Pseudos/Fe_nc.psf

---- Pseudopotential check for Fe

Pseudized shells:
4s( 1.00) rc: 2.00
4p( 0.00) rc: 2.00
3d( 7.00) rc: 2.00
4f( 0.00) rc: 2.00
Valence configuration for ps generation: (assumed as above)
For Fe_nc, standard SIESTA heuristics set lmxkb to 3
 (one more than the basis l, including polarization orbitals).
Use PS.lmax or PS.KBprojectors blocks to override.

<basis_specs>
===============================================================================
Fe_nc                Z=  26    Mass=  55.845        Charge= 0.17977+309
Lmxo=2 Lmxkb= 3    BasisType=split      Semic=F
L=0  Nsemic=0  Cnfigmx=4
          i=1  nzeta=1  polorb=0  (4s)
            splnorm:   0.15000    
               vcte:    40.000    
               rinn:  -0.90000    
               qcoe:    0.0000    
               qyuk:    0.0000    
               qwid:   0.10000E-01
                rcs:    0.0000    
            lambdas:    1.0000    
L=1  Nsemic=0  Cnfigmx=4
          i=1  nzeta=0  polorb=0  (4p)  (empty shell (??) )
L=2  Nsemic=0  Cnfigmx=3
          i=1  nzeta=1  polorb=0  (3d)
            splnorm:   0.15000    
               vcte:    40.000    
               rinn:  -0.90000    
               qcoe:    0.0000    
               qyuk:    0.0000    
               qwid:   0.10000E-01
                rcs:    0.0000    
            lambdas:    1.0000    
-------------------------------------------------------------------------------
L=0  Nkbl=1  erefs: 0.17977+309
L=1  Nkbl=1  erefs: 0.17977+309
L=2  Nkbl=1  erefs: 0.17977+309
L=3  Nkbl=1  erefs: 0.17977+309
===============================================================================
</basis_specs>

Using PAO.SplitTailNorm
atom: Called for Fe_nc                 (Z =  26)
Maximum radius (at nrval) set to   50.00000 8518

read_vps: Pseudopotential generation method:
read_vps: ATM3      Troullier-Martins                       
Valence charge in pseudo generation:    8.00000

read_vps: Pseudopotential includes a core correction:
read_vps: Pseudo-core for xc-correction

xc_check: Exchange-correlation functional:
xc_check: Ceperley-Alder
V l=0 = -2*Zval/r beyond r=  2.8472
V l=1 = -2*Zval/r beyond r=  2.8472
V l=2 = -2*Zval/r beyond r=  2.8472
V l=3 = -2*Zval/r beyond r=  2.8472
All V_l potentials equal beyond r=  1.9894
This should be close to max(r_c) in ps generation
All pots = -2*Zval/r beyond r=  2.8472
Using large-core scheme (fit) for Vlocal

atom: Estimated core radius    2.84716
Fit of Vlocal with continuous 2nd derivative
Fitting vlocal at       1.9954
Choosing vlocal chloc cutoff:  5741  3.100644
qtot up to nchloc:    8.00000259
atom: Maximum radius for chlocal:    3.10064
atom: Maximum radius for r*vlocal+2*Zval:    3.10064

KBgen: Kleinman-Bylander projectors: 
GHOST: No ghost state for L =  0
   l= 0   rc=  1.991366   el= -0.319855   Ekb=  3.826230   kbcos=  0.253712
GHOST: No ghost state for L =  1
   l= 1   rc=  2.019582   el= -0.070931   Ekb=  3.335986   kbcos=  0.155791
GHOST: No ghost state for L =  2
   l= 2   rc=  1.989365   el= -0.307264   Ekb=-12.632066   kbcos= -0.657060
GHOST: No ghost state for L =  3
   l= 3   rc=  2.015527   el=  0.019538   Ekb= -1.701666   kbcos= -0.006384

KBgen: Total number of Kleinman-Bylander projectors:  16
atom: -------------------------------------------------------------------------

atom: SANKEY-TYPE ORBITALS:

SPLIT: Orbitals with angular momentum L= 0

SPLIT: Basis orbitals for state 4s

SPLIT: PAO cut-off radius determined from an
SPLIT: energy shift=  0.010000 Ry
Split based on tail norm

   izeta = 1
                 lambda =    1.000000
                     rc =    7.355669
                 energy =   -0.308198
                kinetic =    0.284874
    potential(screened) =   -0.593072
       potential(ionic) =   -5.763042

SPLIT: Orbitals with angular momentum L= 2

SPLIT: Basis orbitals for state 3d

SPLIT: PAO cut-off radius determined from an
SPLIT: energy shift=  0.010000 Ry
Split based on tail norm

   izeta = 1
                 lambda =    1.000000
                     rc =    4.584362
                 energy =   -0.296412
                kinetic =    8.773647
    potential(screened) =   -9.070058
       potential(ionic) =  -18.006145
atom: Total number of Sankey-type orbitals:  6

atm_pop: Valence configuration (for local Pseudopot. screening):
 4s( 2.00)                                                            
 4p( 0.00)                                                            
 3d( 6.00)                                                            
Vna: chval, zval:    8.00000   8.00000

Vna:  Cut-off radius for the neutral-atom potential:   7.355669
comcore: Pseudo-core radius Rcore=  3.839063

atom: _________________________________________________________________________

prinput: Basis input 

PAO.BasisType split     

%block ChemicalSpeciesLabel
    1   26 Fe_nc                   # Species index, atomic number, species label
%endblock ChemicalSpeciesLabel

%block PAO.Basis                 # Define Basis set
# WARNING: This information might be incomplete!
Fe_nc                 2                    # Species label, number of l-shells
 n=4   0   1                         # n, l, Nzeta 
   7.356   
   1.000   
 n=3   2   1                         # n, l, Nzeta 
   4.584   
   1.000   
%endblock PAO.Basis

prinput: ----------------------------------------------------------------------

Dumping basis to NetCDF file Fe_nc.ion.nc
coor:   Atomic-coordinates input format  =     Cartesian coordinates
coor:                                            (in Bohr units)

siesta: Atomic coordinates (Bohr) and species
siesta:      0.00000   0.00000   3.64400  1        1
siesta:      0.00000   0.00000   0.00000  1        2
siesta:      0.00000   0.00000  -3.64400  1        3

siesta: System type = bulk      

initatomlists: Number of atoms, orbitals, and projectors:      3    18    48

siesta: ******************** Simulation parameters ****************************
siesta:
siesta: The following are some of the parameters of the simulation.
siesta: A complete list of the parameters used, including default values,
siesta: can be found in file out.fdf
siesta:
redata: Spin configuration                          = non-collinear
redata: Number of spin components                   = 4
redata: Time-Reversal Symmetry                      = F
redata: Spin spiral                                 = F
redata: Long output                                 =   F
redata: Number of Atomic Species                    =        1
redata: Charge density info will appear in .RHO file
redata: Write Mulliken charges (when)               = geometry+end
redata: Write Mulliken Pop.                         = Atomic and Orbital charges
redata: Write Hirshfeld charges (when)              = none
redata: Write Voronoi charges (when)                = none
redata: Write spin charge (when)                    = scf
redata: Matel table size (NRTAB)                    =     1024
redata: Mesh Cutoff                                 =   150.0000 Ry
redata: Net charge of the system                    =     0.0000 |e|
redata: Min. number of SCF Iter                     =        0
redata: Max. number of SCF Iter                     =     1000
redata: SCF convergence failure will abort job
redata: SCF mix quantity                            = Hamiltonian
redata: Mix DM or H after convergence               =   F
redata: Recompute H after scf cycle                 =   F
redata: Mix DM in first SCF step                    =   T
redata: Write Pulay info on disk                    =   F
redata: New DM Occupancy tolerance                  = 0.000000000001
redata: No kicks to SCF
redata: DM Mixing Weight for Kicks                  =     0.5000
redata: Require Harris convergence for SCF          =   F
redata: Harris energy tolerance for SCF             =     0.000100 eV
redata: Require DM convergence for SCF              =   T
redata: DM tolerance for SCF                        =     0.000100
redata: Require EDM convergence for SCF             =   F
redata: EDM tolerance for SCF                       =     0.001000 eV
redata: Require H convergence for SCF               =   T
redata: Hamiltonian tolerance for SCF               =     0.001000 eV
redata: Require (free) Energy convergence for SCF   =   F
redata: (free) Energy tolerance for SCF             =     0.000100 eV
redata: Using DFT-D3 dispersion                     =   F
redata: Using Saved Data (generic)                  =   F
redata: Use continuation files for DM               =   T
redata: Neglect nonoverlap interactions             =   F
redata: Method of Calculation                       = Diagonalization
redata: Electronic Temperature                      =   300.0000 K
redata: Fix the spin of the system                  =   F
redata: Max. number of TDED Iter                    =        1
redata: Number of TDED substeps                     =        3
redata: Dynamics option                             = Single-point calculation
mix.SCF: Debug messages                          = T
mix.SCF: Broyden mixing                          = broyden
mix.SCF:    History steps                        = 6
mix.SCF:    Linear mixing weight                 =     0.005000
mix.SCF:    Inverse Jacobian weight              =     0.010000
mix.SCF:    Weight prime                         =     0.010000
mix.SCF:    SVD condition                        = 0.1000E-07
mix.SCF: Spin-component mixing                   all
redata: Save all siesta data in one NC              =   F
redata: ***********************************************************************

%block SCF.Mixers
  broyden
%endblock SCF.Mixers

%block SCF.Mixer.broyden
  # Mixing method
  method broyden

  # Mixing options
  weight 0.0100
  weight.linear 0.0050
  weight.prime 0.0100
  history 6
%endblock SCF.Mixer.broyden

DM_history_depth set to one: no extrapolation allowed by default for geometry relaxation
Size of DM history Fstack: 1
Total number of electrons:    24.000000
Total ionic charge:    24.000000

siesta: k-grid: Number of k-points = 1
siesta: k-point is Gamma-only

diag: Algorithm                                     = D&C
diag: Used triangular part                          = Lower
diag: Absolute tolerance                            =  0.100E-15
diag: Orthogonalization factor                      =  0.100E-05
diag: Memory factor                                 =  1.0000


ts: **************************************************************
ts: Save H and S matrices                           =    F
ts: Save DM and EDM matrices                        =    F
ts: Only save the overlap matrix S                  =    F
ts: **************************************************************

************************ Begin: TS CHECKS AND WARNINGS ************************
************************ End: TS CHECKS AND WARNINGS **************************


                     ====================================
                        Single-point calculation
                     ====================================

outcell: Unit cell vectors (Ang):
        6.350127    0.000000    0.000000
        0.000000    6.350127    0.000000
        0.000000    0.000000   10.583544

outcell: Cell vector modules (Ang)   :    6.350127    6.350127   10.583544
outcell: Cell angles (23,13,12) (deg):     90.0000     90.0000     90.0000
outcell: Cell volume (Ang**3)        :    426.7720
Gamma-point calculation with interaction between periodic images
Some features might not work optimally:
e.g. DM initialization from atomic data
<dSpData1D:S at geom step 0
  <sparsity:sparsity for geom step 0
    nrows_g=18 nrows=18 sparsity=1.0000 nnzs=324, refcount: 7>
  <dData1D:(new from dSpData1D) n=324, refcount: 1>
refcount: 1>
new_DM -- step:     1
Initializing Density Matrix...

Attempting to read DM from file... Failed...
DM filled with atomic data (user-defined):
<dSpData2D:DM initialized from atoms
  <sparsity:sparsity for geom step 0
    nrows_g=18 nrows=18 sparsity=1.0000 nnzs=324, refcount: 8>
  <dData2D:DM n=324 m=4, refcount: 1>
refcount: 1>
No. of atoms with KB's overlaping orbs in proc 0. Max # of overlaps:       3      18

InitMesh: MESH = 48 x 48 x 80 = 184320
InitMesh: Mesh cutoff (required, used) =   150.000   157.914 Ry
New grid distribution [1]: sub = 2

stepf: Fermi-Dirac step function

siesta: Program's energy decomposition (eV):
siesta: Ebs     =       233.382953
siesta: Eions   =      2102.576618
siesta: Ena     =        92.089899
siesta: Ekin    =      2830.136509
siesta: Enl     =     -1830.436929
siesta: Eso     =         0.000000
siesta: Edftu   =         0.000000
siesta: DEna    =      -119.241795
siesta: DUscf   =        55.250613
siesta: DUext   =         0.000000
siesta: Ex      =     -1119.237696
siesta: Ec      =       -98.052083
siesta: Exc     =     -1217.289779
siesta: EbV     =         0.000000
siesta: eta*DQ  =         0.000000
siesta: Emadel  =         0.000000
siesta: Emeta   =         0.000000
siesta: Emolmec =         0.000000
siesta: Ekinion =         0.000000
siesta: Eharris =     -2221.519226
siesta: Etot    =     -2292.068099
siesta: FreeEng =     -2292.162148

        iscf     Eharris(eV)        E_KS(eV)     FreeEng(eV)     dDmax    Ef(eV) dHmax(eV)
   scf:    1    -2221.519226    -2292.068099    -2292.162148  0.995856 -9.385094 33.781836
     spin moment: {S} , |S| = {    1.52849    0.00000   -0.00000 }     1.52849
mix (0): Broyden
mix (0): Broyden (initial), alpha = 0.5000E-02
timer: Routine,Calls,Time,% = IterSCF        1       0.051  16.88
   scf:    2    -2295.645655    -2293.902005    -2293.994524  0.050310 -9.308882 32.395505
     spin moment: {S} , |S| = {    1.45873    0.00000   -0.00000 }     1.45873
mix (0): Broyden
mix (0): n_hist = 2 / 6
mix (0): weights =  0.1473E+01
mix (0): G =   0.010000, sum(coeff) = 0.1570E+02, coeff =  0.1570E+02
   scf:    3    -2298.215940    -2306.684706    -2306.770556  0.368029 -7.725908 19.358893
     spin moment: {S} , |S| = {    2.36815    0.00000   -0.00000 }     2.36815
mix (0): Broyden
mix (0): n_hist = 3 / 6
mix (0): weights =  0.1473E+01 0.1852E+01
mix (0): G =   0.010000, sum(coeff) = -.9709E+02, coeff =  -.1033E+03 0.6227E+01
mix (0): f(x)[coeff] == 0 :   0.1659E+02,0.0000E+00
   scf:    4    -2270.666964    -2305.075514    -2305.157156  0.405351 -7.129284 28.728706
     spin moment: {S} , |S| = {    0.79766    0.00000    0.00000 }     0.79766
mix (0): Broyden
mix (0): n_hist = 4 / 6
mix (0): weights =  0.1852E+01 0.1852E+01 0.1541E+01
mix (0): G =   0.010000, sum(coeff) = -.6685E+01, coeff =  -.9818E+01 0.2376E+01 0.7563E+00
mix (0): f(x)[coeff] == 0 :   0.2360E+01,0.0000E+00  -.5502E+01,0.0000E+00
   scf:    5    -2268.164132    -2315.836084    -2315.837042  0.638749 -4.186663 15.747572
     spin moment: {S} , |S| = {    1.64864    0.00000   -0.00000 }     1.64864
mix (0): Broyden
mix (0): n_hist = 5 / 6
mix (0): weights =  0.1852E+01 0.1541E+01 0.1541E+01 0.2089E+01
mix (0): G =   0.010000, sum(coeff) = 0.3930E+01, coeff =  0.3919E+01 -.2809E+00 0.4125E+00 -.1207E+00
mix (0): f(x)[coeff] == 0 :   -.5423E+00,0.2630E+01  -.5423E+00,-.2630E+01  0.4504E+01,0.0000E+00
   scf:    6    -2314.549958    -2326.070683    -2326.071270  0.258583 -4.345531  6.047369
     spin moment: {S} , |S| = {    1.19441    0.00000   -0.00000 }     1.19441
mix (0): Broyden
mix (0): n_hist = 6 / 6
mix (0): weights =  0.1541E+01 0.1541E+01 0.2089E+01 0.2089E+01 0.4719E+01
mix (0): G =   0.010000, sum(coeff) = 0.3474E+01, coeff =  0.3768E+01 -.1143E+00 0.4981E-01 -.6861E-02 -.2229E+00
mix (0): f(x)[coeff] == 0 :   0.2016E+01,0.0000E+00  0.2368E-01,0.2001E+01  0.2368E-01,-.2001E+01  -.2095E+01,0.0000E+00
   scf:    7    -2325.242272    -2327.353400    -2327.353565  0.101258 -4.210853  2.750208
     spin moment: {S} , |S| = {    1.44536    0.00000   -0.00000 }     1.44536
mix (0): Broyden
mix (0): n_hist = 6 / 6
mix (0): weights =  0.1541E+01 0.2089E+01 0.2089E+01 0.4719E+01 0.1202E+02
mix (0): G =   0.010000, sum(coeff) = 0.1599E+02, coeff =  0.2251E+00 -.1130E-01 -.2553E+00 0.4522E+01 0.1151E+02
mix (0): f(x)[coeff] == 0 :   0.2008E+00,0.2419E+00  0.2008E+00,-.2419E+00  -.3971E+00,0.2005E+00  -.3971E+00,-.2005E+00
   scf:    8    -2323.944639    -2325.920627    -2325.920838  0.042300 -3.294960  7.139946
     spin moment: {S} , |S| = {    1.51235    0.00000    0.00000 }     1.51235
mix (0): Broyden
mix (0): n_hist = 6 / 6
mix (0): weights =  0.2089E+01 0.2089E+01 0.4719E+01 0.1202E+02 0.3974E+01
mix (0): G =   0.010000, sum(coeff) = 0.4070E+01, coeff =  -.1578E+00 -.2836E+00 0.8576E+00 0.1065E+01 0.2589E+01
mix (0): f(x)[coeff] == 0 :   0.3998E+00,0.0000E+00  -.3042E+00,0.0000E+00  -.2535E+00,0.6611E+00  -.2535E+00,-.6611E+00
   scf:    9    -2325.992434    -2327.483754    -2327.483774  0.089297 -1.969689  3.837918
     spin moment: {S} , |S| = {    1.33028    0.00000    0.00000 }     1.33028
mix (0): Broyden
mix (0): n_hist = 6 / 6
mix (0): weights =  0.2089E+01 0.4719E+01 0.1202E+02 0.3974E+01 0.7959E+01
mix (0): G =   0.010000, sum(coeff) = 0.9106E+00, coeff =  -.2509E+00 -.8493E-01 0.2033E+01 -.1308E+01 0.5208E+00
mix (0): f(x)[coeff] == 0 :   -.3017E+00,0.0000E+00  0.4278E+00,0.0000E+00  0.1192E+01,0.1520E+01  0.1192E+01,-.1520E+01
   scf:   10    -2327.322754    -2327.410500    -2327.410529  0.025691 -2.843875  2.986655
     spin moment: {S} , |S| = {    1.31915    0.00000    0.00000 }     1.31915
mix (0): Broyden
mix (0): n_hist = 6 / 6
mix (0): weights =  0.4719E+01 0.1202E+02 0.3974E+01 0.7959E+01 0.1085E+02
mix (0): G =   0.010000, sum(coeff) = 0.1950E+01, coeff =  -.3492E+00 0.2660E+01 -.3686E+01 0.1764E+01 0.1561E+01
mix (0): f(x)[coeff] == 0 :   0.1660E+00,0.0000E+00  0.5597E+00,0.4947E+00  0.5597E+00,-.4947E+00  -.2415E+01,0.0000E+00
   scf:   11    -2327.255664    -2327.661990    -2327.664581  0.067354 -4.458973  1.081426
     spin moment: {S} , |S| = {    1.48903    0.00000   -0.00000 }     1.48903
mix (0): Broyden
mix (0): n_hist = 6 / 6
mix (0): weights =  0.1202E+02 0.3974E+01 0.7959E+01 0.1085E+02 0.3580E+02
mix (0): G =   0.010000, sum(coeff) = 0.9702E+01, coeff =  0.5415E+01 -.3141E+01 0.2406E+01 0.8417E+01 -.3395E+01
mix (0): f(x)[coeff] == 0 :   -.9713E+00,0.0000E+00  0.3772E+00,0.6832E+00  0.3772E+00,-.6832E+00  0.2696E+01,0.0000E+00
   scf:   12    -2327.411510    -2327.548939    -2327.553164  0.012227 -4.486977  1.745773
     spin moment: {S} , |S| = {    1.51537    0.00000   -0.00000 }     1.51537
mix (0): Broyden
mix (0): n_hist = 6 / 6
mix (0): weights =  0.3974E+01 0.7959E+01 0.1085E+02 0.3580E+02 0.2103E+02
mix (0): G =   0.010000, sum(coeff) = -.2994E+02, coeff =  0.1734E+01 0.1996E+00 -.3754E+01 0.3969E+01 -.3209E+02
mix (0): f(x)[coeff] == 0 :   -.3983E+00,0.0000E+00  0.4586E+00,0.0000E+00  0.3173E-01,0.5430E+00  0.3173E-01,-.5430E+00
   scf:   13    -2321.984761    -2325.429317    -2325.500056  0.256277 -4.740756  6.011107
     spin moment: {S} , |S| = {    1.77176    0.00000    0.00000 }     1.77176
mix (0): Broyden
mix (0): n_hist = 6 / 6
mix (0): weights =  0.7959E+01 0.1085E+02 0.3580E+02 0.2103E+02 0.4750E+01
mix (0): G =   0.010000, sum(coeff) = -.1440E+02, coeff =  0.8769E-01 -.3077E+01 0.1423E+01 -.1210E+02 -.7319E+00
mix (0): f(x)[coeff] == 0 :   0.2878E-01,0.0000E+00  0.5150E-01,0.4970E+00  0.5150E-01,-.4970E+00  -.1667E+02,0.0000E+00
   scf:   14    -2328.160461    -2327.736947    -2327.737055  0.270638 -3.819363  0.793587
     spin moment: {S} , |S| = {    1.42961    0.00000    0.00000 }     1.42961
mix (0): Broyden
mix (0): n_hist = 6 / 6
mix (0): weights =  0.1085E+02 0.3580E+02 0.2103E+02 0.4750E+01 0.4799E+02
mix (0): G =   0.010000, sum(coeff) = 0.7243E+01, coeff =  0.1595E+01 -.6145E+00 0.5137E+01 0.6119E+00 0.5141E+00
mix (0): f(x)[coeff] == 0 :   0.8179E-01,0.5538E+00  0.8179E-01,-.5538E+00  -.6769E+00,0.3073E+01  -.6769E+00,-.3073E+01
   scf:   15    -2327.702001    -2327.730109    -2327.730209  0.008405 -4.016378  0.695790
     spin moment: {S} , |S| = {    1.41686    0.00000    0.00000 }     1.41686
mix (0): Broyden
mix (0): n_hist = 6 / 6
mix (0): weights =  0.3580E+02 0.2103E+02 0.4750E+01 0.4799E+02 0.5362E+02
mix (0): G =   0.010000, sum(coeff) = 0.2157E+01, coeff =  0.1498E+00 0.9513E+00 0.1370E+00 0.1319E+00 0.7865E+00
mix (0): f(x)[coeff] == 0 :   0.4991E+00,0.9628E+00  0.4991E+00,-.9628E+00  -.1005E+01,0.0000E+00  -.1612E+00,0.0000E+00
   scf:   16    -2327.747438    -2327.743637    -2327.743914  0.010783 -4.343399  0.058292
     spin moment: {S} , |S| = {    1.44660    0.00000    0.00000 }     1.44660
mix (0): Broyden
mix (0): n_hist = 6 / 6
mix (0): weights =  0.2103E+02 0.4750E+01 0.4799E+02 0.5362E+02 0.1336E+03
mix (0): G =   0.010000, sum(coeff) = 0.3102E-01, coeff =  -.5981E-01 0.8767E-02 0.7857E-02 -.4865E-01 0.1229E+00
mix (0): f(x)[coeff] == 0 :   -.7587E+00,0.0000E+00  0.1265E+00,0.8341E+00  0.1265E+00,-.8341E+00  0.9016E+00,0.0000E+00
   scf:   17    -2327.743624    -2327.743657    -2327.744010  0.000857 -4.361850  0.017986
     spin moment: {S} , |S| = {    1.44918    0.00000    0.00000 }     1.44918
mix (0): Broyden
mix (0): n_hist = 6 / 6
mix (0): weights =  0.4750E+01 0.4799E+02 0.5362E+02 0.1336E+03 0.1436E+03
mix (0): G =   0.010000, sum(coeff) = 0.1487E+02, coeff =  -.1132E+00 -.9107E-01 0.1145E+00 -.1286E+01 0.1625E+02
mix (0): f(x)[coeff] == 0 :   0.3214E+00,0.0000E+00  0.3787E-02,0.2946E+00  0.3787E-02,-.2946E+00  -.2498E+00,0.0000E+00
   scf:   18    -2327.743346    -2327.743509    -2327.744075  0.002046 -4.393327  0.077452
     spin moment: {S} , |S| = {    1.45638    0.00000   -0.00000 }     1.45638
mix (0): Broyden
mix (0): n_hist = 6 / 6
mix (0): weights =  0.4799E+02 0.5362E+02 0.1336E+03 0.1436E+03 0.1292E+03
mix (0): G =   0.010000, sum(coeff) = -.2754E+01, coeff =  0.3256E-01 -.4558E-01 0.4214E+00 -.4337E+01 0.1174E+01
mix (0): f(x)[coeff] == 0 :   -.6073E-01,0.1776E+00  -.6073E-01,-.1776E+00  0.2189E+00,0.0000E+00  0.3597E+01,0.0000E+00
   scf:   19    -2327.742117    -2327.742870    -2327.743803  0.002001 -4.423573  0.146526
     spin moment: {S} , |S| = {    1.46485    0.00000   -0.00000 }     1.46485
mix (0): Broyden
mix (0): n_hist = 6 / 6
mix (0): weights =  0.5362E+02 0.1336E+03 0.1436E+03 0.1292E+03 0.1150E+03
mix (0): G =   0.010000, sum(coeff) = 0.2260E+02, coeff =  0.2806E+00 -.2300E+01 0.2495E+02 -.1142E+02 0.1108E+02
mix (0): f(x)[coeff] == 0 :   0.4560E-01,0.9835E-01  0.4560E-01,-.9835E-01  0.4695E+00,0.1391E+01  0.4695E+00,-.1391E+01
   scf:   20    -2327.744521    -2327.743968    -2327.744192  0.005167 -4.325960  0.080172
     spin moment: {S} , |S| = {    1.46028    0.00000    0.00000 }     1.46028
mix (0): Broyden
mix (0): n_hist = 6 / 6
mix (0): weights =  0.1336E+03 0.1436E+03 0.1292E+03 0.1150E+03 0.1286E+03
mix (0): G =   0.010000, sum(coeff) = -.3173E+01, coeff =  0.1247E+01 -.8414E+01 0.5092E+01 -.2988E+01 0.1890E+01
mix (0): f(x)[coeff] == 0 :   -.5787E-01,0.1624E+01  -.5787E-01,-.1624E+01  0.1534E+01,0.0000E+00  0.1628E+00,0.0000E+00
   scf:   21    -2327.744315    -2327.744171    -2327.744548  0.003084 -4.369158  0.032944
     spin moment: {S} , |S| = {    1.48262    0.00000    0.00000 }     1.48262
mix (0): Broyden
mix (0): n_hist = 6 / 6
mix (0): weights =  0.1436E+03 0.1292E+03 0.1150E+03 0.1286E+03 0.1398E+03
mix (0): G =   0.010000, sum(coeff) = -.4016E-01, coeff =  0.1821E+00 -.1115E+00 -.2566E+00 0.8680E-01 0.5901E-01
mix (0): f(x)[coeff] == 0 :   0.1434E+01,0.0000E+00  0.7887E+00,0.0000E+00  -.1021E+01,0.0000E+00  -.2672E+01,0.0000E+00
   scf:   22    -2327.744347    -2327.744265    -2327.744572  0.000750 -4.354524  0.006900
     spin moment: {S} , |S| = {    1.48142    0.00000    0.00000 }     1.48142
mix (0): Broyden
mix (0): n_hist = 6 / 6
mix (0): weights =  0.1292E+03 0.1150E+03 0.1286E+03 0.1398E+03 0.1465E+03
mix (0): G =   0.010000, sum(coeff) = 0.8421E+00, coeff =  0.7498E-01 0.1929E+00 -.2365E-01 -.5696E-01 0.6548E+00
mix (0): f(x)[coeff] == 0 :   0.4709E+00,0.5877E+00  0.4709E+00,-.5877E+00  -.4274E+00,0.1386E+00  -.4274E+00,-.1386E+00
   scf:   23    -2327.744279    -2327.744272    -2327.744576  0.000051 -4.353475  0.006885
     spin moment: {S} , |S| = {    1.48168    0.00000    0.00000 }     1.48168
mix (0): Broyden
mix (0): n_hist = 6 / 6
mix (0): weights =  0.1150E+03 0.1286E+03 0.1398E+03 0.1465E+03 0.1466E+03
mix (0): G =   0.010000, sum(coeff) = 0.5101E+01, coeff =  -.2162E-01 -.2986E-01 0.1934E-01 -.1906E+00 0.5324E+01
mix (0): f(x)[coeff] == 0 :   0.2798E+00,0.0000E+00  -.1267E-01,0.2573E+00  -.1267E-01,-.2573E+00  -.2187E+00,0.0000E+00
   scf:   24    -2327.744306    -2327.744289    -2327.744594  0.000182 -4.353854  0.006733
     spin moment: {S} , |S| = {    1.48383    0.00000   -0.00000 }     1.48383
mix (0): Broyden
mix (0): n_hist = 6 / 6
mix (0): weights =  0.1286E+03 0.1398E+03 0.1465E+03 0.1466E+03 0.1466E+03
mix (0): G =   0.010000, sum(coeff) = 0.7889E+01, coeff =  0.2179E-01 -.6116E-03 -.7905E-01 0.1232E+01 0.6715E+01
mix (0): f(x)[coeff] == 0 :   0.1397E+00,0.1569E+00  0.1397E+00,-.1569E+00  -.2315E+00,0.1410E+00  -.2315E+00,-.1410E+00
   scf:   25    -2327.744542    -2327.744399    -2327.744702  0.001279 -4.354055  0.005689
     spin moment: {S} , |S| = {    1.49874    0.00000   -0.00000 }     1.49874
mix (0): Broyden
mix (0): n_hist = 6 / 6
mix (0): weights =  0.1398E+03 0.1465E+03 0.1466E+03 0.1466E+03 0.1469E+03
mix (0): G =   0.010000, sum(coeff) = 0.4835E+00, coeff =  0.2003E-02 -.1382E-01 0.3137E+00 -.1013E+00 0.2829E+00
mix (0): f(x)[coeff] == 0 :   0.2148E-01,0.7771E-01  0.2148E-01,-.7771E-01  0.1576E+00,0.1031E+01  0.1576E+00,-.1031E+01
   scf:   26    -2327.744454    -2327.744425    -2327.744728  0.000368 -4.354036  0.005386
     spin moment: {S} , |S| = {    1.50305    0.00000   -0.00000 }     1.50305
mix (0): Broyden
mix (0): n_hist = 6 / 6
mix (0): weights =  0.1465E+03 0.1466E+03 0.1466E+03 0.1469E+03 0.1470E+03
mix (0): G =   0.010000, sum(coeff) = 0.2342E+00, coeff =  0.1510E-01 -.3559E+00 -.2850E+00 -.2621E+00 0.1122E+01
mix (0): f(x)[coeff] == 0 :   -.3511E+00,0.4931E+00  -.3511E+00,-.4931E+00  0.4103E-01,0.0000E+00  0.8948E+00,0.0000E+00
   scf:   27    -2327.744429    -2327.744427    -2327.744730  0.000029 -4.354009  0.005360
     spin moment: {S} , |S| = {    1.50345    0.00000    0.00000 }     1.50345
mix (0): Broyden
mix (0): n_hist = 6 / 6
mix (0): weights =  0.1466E+03 0.1466E+03 0.1469E+03 0.1470E+03 0.1470E+03
mix (0): G =   0.010000, sum(coeff) = 0.5629E-01, coeff =  -.2376E+00 -.7348E+00 0.7714E-01 0.1016E+00 0.8500E+00
mix (0): f(x)[coeff] == 0 :   0.9814E+00,0.0000E+00  -.3969E+00,0.8774E+00  -.3969E+00,-.8774E+00  -.3072E+00,0.0000E+00
   scf:   28    -2327.744432    -2327.744430    -2327.744732  0.000034 -4.353976  0.005332
     spin moment: {S} , |S| = {    1.50391    0.00000    0.00000 }     1.50391
mix (0): Broyden
mix (0): n_hist = 6 / 6
mix (0): weights =  0.1466E+03 0.1469E+03 0.1470E+03 0.1470E+03 0.1470E+03
mix (0): G =   0.010000, sum(coeff) = 0.1656E+01, coeff =  -.7246E-01 0.2078E+00 -.5871E+00 -.2261E+00 0.2334E+01
mix (0): f(x)[coeff] == 0 :   -.6372E+00,0.0000E+00  0.1189E+00,0.2899E+00  0.1189E+00,-.2899E+00  0.4962E+00,0.0000E+00
   scf:   29    -2327.744446    -2327.744438    -2327.744741  0.000122 -4.353930  0.005231
     spin moment: {S} , |S| = {    1.50545    0.00000    0.00000 }     1.50545
mix (0): Broyden
mix (0): n_hist = 6 / 6
mix (0): weights =  0.1469E+03 0.1470E+03 0.1470E+03 0.1470E+03 0.1470E+03
mix (0): G =   0.010000, sum(coeff) = 0.4784E+01, coeff =  0.3855E+00 -.1183E+01 -.4152E+00 0.1047E+01 0.4950E+01
mix (0): f(x)[coeff] == 0 :   0.3820E+00,0.8487E-01  0.3820E+00,-.8487E-01  -.4878E+00,0.5201E+00  -.4878E+00,-.5201E+00
   scf:   30    -2327.744532    -2327.744480    -2327.744784  0.000694 -4.353777  0.004658
     spin moment: {S} , |S| = {    1.51419    0.00000   -0.00000 }     1.51419
mix (0): Broyden
mix (0): n_hist = 6 / 6
mix (0): weights =  0.1470E+03 0.1470E+03 0.1470E+03 0.1470E+03 0.1472E+03
mix (0): G =   0.010000, sum(coeff) = 0.1199E+01, coeff =  -.7899E-01 0.2555E+00 -.8764E-01 -.1404E+00 0.1250E+01
mix (0): f(x)[coeff] == 0 :   -.6665E+00,0.0000E+00  0.2330E+00,0.4989E+00  0.2330E+00,-.4989E+00  0.3127E+00,0.0000E+00
   scf:   31    -2327.744579    -2327.744523    -2327.744827  0.000836 -4.353590  0.003967
     spin moment: {S} , |S| = {    1.52474    0.00000   -0.00000 }     1.52474
mix (0): Broyden
mix (0): n_hist = 6 / 6
mix (0): weights =  0.1470E+03 0.1470E+03 0.1470E+03 0.1472E+03 0.1473E+03
mix (0): G =   0.010000, sum(coeff) = -.3433E+00, coeff =  0.2108E+00 -.1959E+00 -.4429E+00 -.3748E+00 0.4595E+00
mix (0): f(x)[coeff] == 0 :   -.5847E+00,0.5445E+00  -.5847E+00,-.5445E+00  0.4766E+00,0.0000E+00  0.1508E+01,0.0000E+00
   scf:   32    -2327.744530    -2327.744527    -2327.744831  0.000080 -4.353594  0.003901
     spin moment: {S} , |S| = {    1.52576    0.00000   -0.00000 }     1.52576
mix (0): Broyden
mix (0): n_hist = 6 / 6
mix (0): weights =  0.1470E+03 0.1470E+03 0.1472E+03 0.1473E+03 0.1474E+03
mix (0): G =   0.010000, sum(coeff) = -.4686E+00, coeff =  -.9257E+00 -.6556E+00 -.3109E+00 0.4374E+00 0.9862E+00
mix (0): f(x)[coeff] == 0 :   0.1099E+01,0.0000E+00  -.2656E+00,0.8793E+00  -.2656E+00,-.8793E+00  -.1012E+01,0.0000E+00
   scf:   33    -2327.744538    -2327.744532    -2327.744837  0.000128 -4.353635  0.003797
     spin moment: {S} , |S| = {    1.52735    0.00000   -0.00000 }     1.52735
mix (0): Broyden
mix (0): n_hist = 6 / 6
mix (0): weights =  0.1470E+03 0.1472E+03 0.1473E+03 0.1474E+03 0.1474E+03
mix (0): G =   0.010000, sum(coeff) = 0.5313E+00, coeff =  -.8349E+00 -.2782E+00 0.3787E+00 -.4493E+00 0.1715E+01
mix (0): f(x)[coeff] == 0 :   0.8955E+00,0.0000E+00  -.6693E+00,0.0000E+00  0.1791E-01,0.9010E+00  0.1791E-01,-.9010E+00
   scf:   34    -2327.744550    -2327.744541    -2327.744846  0.000215 -4.353723  0.003623
     spin moment: {S} , |S| = {    1.53003    0.00000   -0.00000 }     1.53003
mix (0): Broyden
mix (0): n_hist = 6 / 6
mix (0): weights =  0.1472E+03 0.1473E+03 0.1474E+03 0.1474E+03 0.1474E+03
mix (0): G =   0.010000, sum(coeff) = 0.1150E+01, coeff =  -.3655E+00 0.2881E+00 -.1396E+01 0.2123E+00 0.2410E+01
mix (0): f(x)[coeff] == 0 :   0.7790E+00,0.0000E+00  0.5318E-01,0.4440E+00  0.5318E-01,-.4440E+00  -.9735E+00,0.0000E+00
   scf:   35    -2327.744576    -2327.744556    -2327.744864  0.000429 -4.353947  0.003277
     spin moment: {S} , |S| = {    1.53534    0.00000   -0.00000 }     1.53534
mix (0): Broyden
mix (0): n_hist = 6 / 6
mix (0): weights =  0.1473E+03 0.1474E+03 0.1474E+03 0.1474E+03 0.1475E+03
mix (0): G =   0.010000, sum(coeff) = 0.4406E+00, coeff =  0.4284E-02 -.8020E+00 -.6817E+00 -.1103E+00 0.2030E+01
mix (0): f(x)[coeff] == 0 :   -.4280E+00,0.5053E+00  -.4280E+00,-.5053E+00  0.5318E-02,0.0000E+00  0.9049E+00,0.0000E+00
   scf:   36    -2327.744609    -2327.744578    -2327.744888  0.000708 -4.354354  0.002711
     spin moment: {S} , |S| = {    1.54407    0.00000   -0.00000 }     1.54407
mix (0): Broyden
mix (0): n_hist = 6 / 6
mix (0): weights =  0.1474E+03 0.1474E+03 0.1474E+03 0.1475E+03 0.1477E+03
mix (0): G =   0.010000, sum(coeff) = -.1342E+00, coeff =  0.1723E+00 -.3616E+00 -.3397E+00 -.1293E+00 0.5242E+00
mix (0): f(x)[coeff] == 0 :   -.6231E+00,0.6444E+00  -.6231E+00,-.6444E+00  0.3615E+00,0.0000E+00  0.1131E+01,0.0000E+00
   scf:   37    -2327.744590    -2327.744583    -2327.744895  0.000217 -4.354495  0.002539
     spin moment: {S} , |S| = {    1.54674    0.00000   -0.00000 }     1.54674
mix (0): Broyden
mix (0): n_hist = 6 / 6
mix (0): weights =  0.1474E+03 0.1474E+03 0.1475E+03 0.1477E+03 0.1477E+03
mix (0): G =   0.010000, sum(coeff) = -.1029E+00, coeff =  -.2813E+00 -.2893E+00 -.2632E+00 0.5791E-01 0.6731E+00
mix (0): f(x)[coeff] == 0 :   0.1046E+01,0.0000E+00  -.1788E+00,0.6957E+00  -.1788E+00,-.6957E+00  -.7744E+00,0.0000E+00
   scf:   38    -2327.744582    -2327.744583    -2327.744895  0.000018 -4.354521  0.002556
     spin moment: {S} , |S| = {    1.54652    0.00000   -0.00000 }     1.54652
mix (0): Broyden
mix (0): n_hist = 6 / 6
mix (0): weights =  0.1474E+03 0.1475E+03 0.1477E+03 0.1477E+03 0.1477E+03
mix (0): G =   0.010000, sum(coeff) = 0.3930E+00, coeff =  -.4200E+00 -.3701E+00 0.1457E+00 0.4841E+00 0.5533E+00
mix (0): f(x)[coeff] == 0 :   0.8683E+00,0.0000E+00  -.4420E+00,0.9067E+00  -.4420E+00,-.9067E+00  -.8593E+00,0.0000E+00
   scf:   39    -2327.744580    -2327.744582    -2327.744894  0.000044 -4.354546  0.002594
     spin moment: {S} , |S| = {    1.54598    0.00000    0.00000 }     1.54598
mix (0): Broyden
mix (0): n_hist = 6 / 6
mix (0): weights =  0.1475E+03 0.1477E+03 0.1477E+03 0.1477E+03 0.1477E+03
mix (0): G =   0.010000, sum(coeff) = 0.5100E+00, coeff =  -.5478E+00 0.2166E+00 0.3066E+00 0.1639E+00 0.3708E+00
mix (0): f(x)[coeff] == 0 :   -.1146E+01,0.0000E+00  0.7664E+00,0.0000E+00  -.3110E-01,0.1296E+01  -.3110E-01,-.1296E+01
   scf:   40    -2327.744580    -2327.744581    -2327.744893  0.000028 -4.354571  0.002619
     spin moment: {S} , |S| = {    1.54564    0.00000    0.00000 }     1.54564
mix (0): Broyden
mix (0): n_hist = 6 / 6
mix (0): weights =  0.1477E+03 0.1477E+03 0.1477E+03 0.1477E+03 0.1477E+03
mix (0): G =   0.010000, sum(coeff) = 0.4122E+00, coeff =  0.8052E-02 0.1154E+00 -.9009E-01 0.8004E-01 0.2988E+00
mix (0): f(x)[coeff] == 0 :   0.3817E+00,0.5254E+00  0.3817E+00,-.5254E+00  -.6621E-01,0.0000E+00  -.9650E+00,0.0000E+00
   scf:   41    -2327.744582    -2327.744581    -2327.744894  0.000027 -4.354596  0.002598
     spin moment: {S} , |S| = {    1.54598    0.00000    0.00000 }     1.54598
mix (0): Broyden
mix (0): n_hist = 6 / 6
mix (0): weights =  0.1477E+03 0.1477E+03 0.1477E+03 0.1477E+03 0.1477E+03
mix (0): G =   0.010000, sum(coeff) = 0.4158E+00, coeff =  0.1590E-01 -.1839E+00 -.3546E-01 0.1977E+00 0.4215E+00
mix (0): f(x)[coeff] == 0 :   0.6257E+00,0.0000E+00  0.8585E-01,0.0000E+00  -.5903E+00,0.5947E+00  -.5903E+00,-.5947E+00
   scf:   42    -2327.744582    -2327.744582    -2327.744894  0.000021 -4.354606  0.002582
     spin moment: {S} , |S| = {    1.54626    0.00000    0.00000 }     1.54626
mix (0): Broyden
mix (0): n_hist = 6 / 6
mix (0): weights =  0.1477E+03 0.1477E+03 0.1477E+03 0.1477E+03 0.1477E+03
mix (0): G =   0.010000, sum(coeff) = 0.8057E+00, coeff =  -.2437E+00 -.1082E+00 0.1318E+00 0.3783E+00 0.6475E+00
mix (0): f(x)[coeff] == 0 :   0.6793E+00,0.0000E+00  -.2311E+00,0.7988E+00  -.2311E+00,-.7988E+00  -.8014E+00,0.0000E+00
   scf:   43    -2327.744584    -2327.744583    -2327.744895  0.000036 -4.354614  0.002553
     spin moment: {S} , |S| = {    1.54672    0.00000   -0.00000 }     1.54672
mix (0): Broyden
mix (0): n_hist = 6 / 6
mix (0): weights =  0.1477E+03 0.1477E+03 0.1477E+03 0.1477E+03 0.1477E+03
mix (0): G =   0.010000, sum(coeff) = 0.1787E+01, coeff =  -.2167E+00 0.3070E-01 0.3060E+00 0.6002E+00 0.1067E+01
mix (0): f(x)[coeff] == 0 :   0.4869E+00,0.0000E+00  -.7359E+00,0.0000E+00  -.1569E+00,0.7365E+00  -.1569E+00,-.7365E+00
   scf:   44    -2327.744587    -2327.744585    -2327.744898  0.000075 -4.354630  0.002494
     spin moment: {S} , |S| = {    1.54769    0.00000   -0.00000 }     1.54769
mix (0): Broyden
mix (0): n_hist = 6 / 6
mix (0): weights =  0.1477E+03 0.1477E+03 0.1477E+03 0.1477E+03 0.1477E+03
mix (0): G =   0.010000, sum(coeff) = 0.3275E+01, coeff =  -.1987E+00 0.1350E+00 0.4851E+00 0.9374E+00 0.1916E+01
mix (0): f(x)[coeff] == 0 :   0.3691E+00,0.0000E+00  -.6478E+00,0.0000E+00  -.1053E+00,0.6500E+00  -.1053E+00,-.6500E+00
   scf:   45    -2327.744595    -2327.744590    -2327.744904  0.000202 -4.354669  0.002334
     spin moment: {S} , |S| = {    1.55030    0.00000   -0.00000 }     1.55030
mix (0): Broyden
mix (0): n_hist = 6 / 6
mix (0): weights =  0.1477E+03 0.1477E+03 0.1477E+03 0.1477E+03 0.1478E+03
mix (0): G =   0.010000, sum(coeff) = 0.4365E+01, coeff =  -.4129E+00 0.1050E+00 0.4887E+00 0.1051E+01 0.3133E+01
mix (0): f(x)[coeff] == 0 :   0.4675E+00,0.0000E+00  -.6515E+00,0.0000E+00  -.7568E-01,0.6534E+00  -.7568E-01,-.6534E+00
   scf:   46    -2327.744627    -2327.744604    -2327.744921  0.000725 -4.354791  0.001795
     spin moment: {S} , |S| = {    1.55970    0.00000   -0.00000 }     1.55970
mix (0): Broyden
mix (0): n_hist = 6 / 6
mix (0): weights =  0.1477E+03 0.1477E+03 0.1477E+03 0.1478E+03 0.1479E+03
mix (0): G =   0.010000, sum(coeff) = 0.1038E+01, coeff =  -.3010E+00 -.4363E-01 -.1038E-01 0.1793E+00 0.1214E+01
mix (0): f(x)[coeff] == 0 :   0.6911E+00,0.0000E+00  -.5449E-01,0.6990E+00  -.5449E-01,-.6990E+00  -.7298E+00,0.0000E+00
   scf:   47    -2327.744639    -2327.744614    -2327.744936  0.000911 -4.354924  0.001174
     spin moment: {S} , |S| = {    1.57150    0.00000   -0.00000 }     1.57150
mix (0): Broyden
mix (0): n_hist = 6 / 6
mix (0): weights =  0.1477E+03 0.1477E+03 0.1478E+03 0.1479E+03 0.1481E+03
mix (0): G =   0.010000, sum(coeff) = -.8926E-01, coeff =  -.6293E-01 -.7178E-01 -.5260E-01 0.3015E-01 0.6790E-01
mix (0): f(x)[coeff] == 0 :   0.1271E+01,0.0000E+00  -.3386E+00,0.7667E+00  -.3386E+00,-.7667E+00  -.1038E+01,0.0000E+00
   scf:   48    -2327.744615    -2327.744614    -2327.744937  0.000068 -4.354927  0.001128
     spin moment: {S} , |S| = {    1.57240    0.00000   -0.00000 }     1.57240
mix (0): Broyden
mix (0): n_hist = 6 / 6
mix (0): weights =  0.1477E+03 0.1478E+03 0.1479E+03 0.1481E+03 0.1481E+03
mix (0): G =   0.010000, sum(coeff) = 0.1534E+00, coeff =  -.1321E+00 -.1681E+00 -.1296E+00 0.1879E+00 0.3953E+00
mix (0): f(x)[coeff] == 0 :   0.8933E+00,0.0000E+00  -.2675E+00,0.6141E+00  -.2675E+00,-.6141E+00  -.8335E+00,0.0000E+00
   scf:   49    -2327.744615    -2327.744615    -2327.744937  0.000062 -4.354924  0.001162
     spin moment: {S} , |S| = {    1.57324    0.00000   -0.00000 }     1.57324
mix (0): Broyden
mix (0): n_hist = 6 / 6
mix (0): weights =  0.1478E+03 0.1479E+03 0.1481E+03 0.1481E+03 0.1481E+03
mix (0): G =   0.010000, sum(coeff) = 0.2706E+00, coeff =  -.2658E+00 -.2631E+00 0.2956E+00 0.1466E+00 0.3573E+00
mix (0): f(x)[coeff] == 0 :   0.8495E+00,0.0000E+00  -.5826E+00,0.0000E+00  -.3386E+00,0.1178E+01  -.3386E+00,-.1178E+01
   scf:   50    -2327.744616    -2327.744615    -2327.744938  0.000059 -4.354917  0.001189
     spin moment: {S} , |S| = {    1.57404    0.00000    0.00000 }     1.57404
mix (0): Broyden
mix (0): n_hist = 6 / 6
mix (0): weights =  0.1479E+03 0.1481E+03 0.1481E+03 0.1481E+03 0.1481E+03
mix (0): G =   0.010000, sum(coeff) = 0.4384E+00, coeff =  -.3918E+00 0.3355E+00 -.4525E-01 0.1498E+00 0.3902E+00
mix (0): f(x)[coeff] == 0 :   0.7317E+00,0.0000E+00  0.1171E+00,0.1001E+01  0.1171E+00,-.1001E+01  -.1350E+01,0.0000E+00
   scf:   51    -2327.744616    -2327.744616    -2327.744939  0.000053 -4.354907  0.001196
     spin moment: {S} , |S| = {    1.57477    0.00000    0.00000 }     1.57477
mix (0): Broyden
mix (0): n_hist = 6 / 6
mix (0): weights =  0.1481E+03 0.1481E+03 0.1481E+03 0.1481E+03 0.1481E+03
mix (0): G =   0.010000, sum(coeff) = 0.5550E+00, coeff =  0.4232E-01 -.2084E+00 -.2331E-01 0.2411E+00 0.5032E+00
mix (0): f(x)[coeff] == 0 :   0.5265E+00,0.0000E+00  0.2144E+00,0.0000E+00  -.6101E+00,0.6105E+00  -.6101E+00,-.6105E+00
   scf:   52    -2327.744616    -2327.744616    -2327.744939  0.000066 -4.354899  0.001183
     spin moment: {S} , |S| = {    1.57566    0.00000    0.00000 }     1.57566
mix (0): Broyden
mix (0): n_hist = 6 / 6
mix (0): weights =  0.1481E+03 0.1481E+03 0.1481E+03 0.1481E+03 0.1481E+03
mix (0): G =   0.010000, sum(coeff) = 0.1284E+01, coeff =  -.1847E+00 0.2979E-02 0.2431E+00 0.4720E+00 0.7504E+00
mix (0): f(x)[coeff] == 0 :   0.5164E+00,0.0000E+00  -.7640E+00,0.0000E+00  -.1907E+00,0.7666E+00  -.1907E+00,-.7666E+00
   scf:   53    -2327.744617    -2327.744616    -2327.744940  0.000078 -4.354879  0.001152
     spin moment: {S} , |S| = {    1.57674    0.00000    0.00000 }     1.57674
mix (0): Broyden
mix (0): n_hist = 6 / 6
mix (0): weights =  0.1481E+03 0.1481E+03 0.1481E+03 0.1481E+03 0.1481E+03
mix (0): G =   0.010000, sum(coeff) = 0.2112E+01, coeff =  -.3339E-01 0.1795E+00 0.3778E+00 0.5659E+00 0.1022E+01
mix (0): f(x)[coeff] == 0 :   -.5903E+00,0.0000E+00  0.1367E+00,0.0000E+00  -.5006E-01,0.6344E+00  -.5006E-01,-.6344E+00
   scf:   54    -2327.744618    -2327.744617    -2327.744941  0.000147 -4.354843  0.001099
     spin moment: {S} , |S| = {    1.57877    0.00000   -0.00000 }     1.57877
mix (0): Broyden
mix (0): n_hist = 6 / 6
mix (0): weights =  0.1481E+03 0.1481E+03 0.1481E+03 0.1481E+03 0.1481E+03
mix (0): G =   0.010000, sum(coeff) = 0.2293E+01, coeff =  0.8053E-01 0.2230E+00 0.2520E+00 0.6164E+00 0.1121E+01
mix (0): f(x)[coeff] == 0 :   0.1759E+00,0.5291E+00  0.1759E+00,-.5291E+00  -.4508E+00,0.1669E+00  -.4508E+00,-.1669E+00
   scf:   55    -2327.744620    -2327.744618    -2327.744943  0.000248 -4.354779  0.001006
     spin moment: {S} , |S| = {    1.58219    0.00000   -0.00000 }     1.58219
mix (0): Broyden
mix (0): n_hist = 6 / 6
mix (0): weights =  0.1481E+03 0.1481E+03 0.1481E+03 0.1481E+03 0.1481E+03
mix (0): G =   0.010000, sum(coeff) = 0.1290E+01, coeff =  0.7682E-01 -.6815E-01 0.2031E+00 0.3689E+00 0.7090E+00
mix (0): f(x)[coeff] == 0 :   0.2411E+00,0.3566E+00  0.2411E+00,-.3566E+00  -.5013E+00,0.5773E+00  -.5013E+00,-.5773E+00
   scf:   56    -2327.744619    -2327.744618    -2327.744944  0.000246 -4.354709  0.000996
     spin moment: {S} , |S| = {    1.58560    0.00000   -0.00000 }     1.58560
mix (0): Broyden
mix (0): n_hist = 6 / 6
mix (0): weights =  0.1481E+03 0.1481E+03 0.1481E+03 0.1481E+03 0.1481E+03
mix (0): G =   0.010000, sum(coeff) = 0.3079E+00, coeff =  -.2034E+00 0.2251E-01 0.4001E-01 0.1473E+00 0.3015E+00
mix (0): f(x)[coeff] == 0 :   0.7576E+00,0.0000E+00  -.1049E+00,0.9210E+00  -.1049E+00,-.9210E+00  -.1036E+01,0.0000E+00
   scf:   57    -2327.744618    -2327.744618    -2327.744944  0.000105 -4.354672  0.001013
     spin moment: {S} , |S| = {    1.58707    0.00000   -0.00000 }     1.58707
mix (0): Broyden
mix (0): n_hist = 6 / 6
mix (0): weights =  0.1481E+03 0.1481E+03 0.1481E+03 0.1481E+03 0.1481E+03
mix (0): G =   0.010000, sum(coeff) = 0.2523E+00, coeff =  -.3312E-01 -.6429E-01 -.2995E-01 0.1203E+00 0.2594E+00
mix (0): f(x)[coeff] == 0 :   0.6732E+00,0.0000E+00  -.2783E+00,0.4995E+00  -.2783E+00,-.4995E+00  -.5801E+00,0.0000E+00
   scf:   58    -2327.744618    -2327.744618    -2327.744944  0.000038 -4.354654  0.001016
     spin moment: {S} , |S| = {    1.58761    0.00000   -0.00000 }     1.58761
mix (0): Broyden
mix (0): n_hist = 6 / 6
mix (0): weights =  0.1481E+03 0.1481E+03 0.1481E+03 0.1481E+03 0.1481E+03
mix (0): G =   0.010000, sum(coeff) = 0.3548E+00, coeff =  -.9534E-01 -.8221E-01 0.6395E-01 0.2220E+00 0.2464E+00
mix (0): f(x)[coeff] == 0 :   0.6787E+00,0.0000E+00  -.3873E+00,0.7471E+00  -.3873E+00,-.7471E+00  -.8053E+00,0.0000E+00
   scf:   59    -2327.744618    -2327.744618    -2327.744944  0.000014 -4.354640  0.001014
     spin moment: {S} , |S| = {    1.58784    0.00000    0.00000 }     1.58784
mix (0): Broyden
mix (0): n_hist = 6 / 6
mix (0): weights =  0.1481E+03 0.1481E+03 0.1481E+03 0.1481E+03 0.1481E+03
mix (0): G =   0.010000, sum(coeff) = 0.5987E+00, coeff =  -.1173E+00 0.2438E-01 0.1915E+00 0.2250E+00 0.2751E+00
mix (0): f(x)[coeff] == 0 :   0.5219E+00,0.0000E+00  -.8380E+00,0.0000E+00  -.2509E+00,0.9550E+00  -.2509E+00,-.9550E+00
   scf:   60    -2327.744618    -2327.744618    -2327.744945  0.000010 -4.354626  0.001010
     spin moment: {S} , |S| = {    1.58800    0.00000    0.00000 }     1.58800
mix (0): Broyden
mix (0): n_hist = 6 / 6
mix (0): weights =  0.1481E+03 0.1481E+03 0.1481E+03 0.1481E+03 0.1481E+03
mix (0): G =   0.010000, sum(coeff) = 0.8509E+00, coeff =  -.5793E-01 0.1448E+00 0.1995E+00 0.2561E+00 0.3084E+00
mix (0): f(x)[coeff] == 0 :   -.9214E+00,0.0000E+00  0.2628E+00,0.0000E+00  -.8588E-01,0.8766E+00  -.8588E-01,-.8766E+00
   scf:   61    -2327.744618    -2327.744618    -2327.744945  0.000015 -4.354608  0.001005
     spin moment: {S} , |S| = {    1.58825    0.00000    0.00000 }     1.58825
mix (0): Broyden
mix (0): n_hist = 6 / 6
mix (0): weights =  0.1481E+03 0.1481E+03 0.1481E+03 0.1481E+03 0.1481E+03
mix (0): G =   0.010000, sum(coeff) = 0.1099E+01, coeff =  0.7094E-01 0.1660E+00 0.2347E+00 0.2877E+00 0.3391E+00
mix (0): f(x)[coeff] == 0 :   0.1099E+00,0.7254E+00  0.1099E+00,-.7254E+00  -.5341E+00,0.3215E+00  -.5341E+00,-.3215E+00
   scf:   62    -2327.744619    -2327.744618    -2327.744945  0.000025 -4.354584  0.001000
     spin moment: {S} , |S| = {    1.58864    0.00000    0.00000 }     1.58864
mix (0): Broyden
mix (0): n_hist = 6 / 6
mix (0): weights =  0.1481E+03 0.1481E+03 0.1481E+03 0.1481E+03 0.1481E+03
mix (0): G =   0.010000, sum(coeff) = 0.1292E+01, coeff =  0.1304E+00 0.2115E+00 0.2646E+00 0.3093E+00 0.3764E+00
mix (0): f(x)[coeff] == 0 :   0.1967E+00,0.7743E+00  0.1967E+00,-.7743E+00  -.6076E+00,0.4168E+00  -.6076E+00,-.4168E+00
   scf:   63    -2327.744619    -2327.744619    -2327.744945  0.000025 -4.354556  0.000992
     spin moment: {S} , |S| = {    1.58904    0.00000    0.00000 }     1.58904

SCF Convergence by DM+H criterion
max |DM_out - DM_in|         :     0.0000250195
max |H_out - H_in|      (eV) :     0.0009920397
SCF cycle converged after 63 iterations
mix (0): resetting history of all mixers

Using DM_out to compute the final energy and forces
No. of atoms with KB's overlaping orbs in proc 0. Max # of overlaps:       3      18

siesta: E_KS(eV) =            -2327.7446

siesta: E_KS - E_eggbox =     -2327.7446

siesta: Atomic forces (eV/Ang):
----------------------------------------
   Tot    0.000000   -0.000000    0.000000
----------------------------------------
   Max    0.630349
   Res    0.297149    sqrt( Sum f_i^2 / 3N )
----------------------------------------
   Max    0.630349    constrained

Stress tensor Voigt[x,y,z,yz,xz,xy] (kbar):        8.52        8.52      -14.96        0.00       -0.00       -0.00
(Free)E + p*V (eV/cell)    -2327.9286
Target enthalpy (eV/cell)    -2327.7449

mulliken: Atomic and Orbital Populations:

Species: Fe_nc               

Atom      Orb        Charge      Spin       Svec
----------------------------------------------------------------
    1  1 4s         1.48519   0.10502     -0.015   0.000   0.104
    1  2 3dxy       1.26340   0.73105      0.082   0.000   0.726
    1  3 3dyz       1.35282   0.53470      0.012   0.000   0.535
    1  4 3dz2       1.36889   0.51021      0.019   0.000   0.510
    1  5 3dxz       1.35282   0.53470      0.012   0.000   0.535
    1  6 3dx2-y2    1.26329   0.73116      0.082   0.000   0.727
    1     Total     8.08640   3.14185      0.191   0.000   3.136

    2  1 4s         1.03162   0.03980      0.040   0.000  -0.000
    2  2 3dxy       1.47351   0.40864      0.409   0.000  -0.000
    2  3 3dyz       1.29436   0.11781      0.118   0.000  -0.000
    2  4 3dz2       1.25964   0.11412      0.114   0.000  -0.000
    2  5 3dxz       1.29436   0.11781      0.118   0.000  -0.000
    2  6 3dx2-y2    1.47371   0.40845      0.408   0.000  -0.000
    2     Total     7.82720   1.20663      1.207   0.000  -0.000

    3  1 4s         1.48519   0.10502     -0.015   0.000  -0.104
    3  2 3dxy       1.26340   0.73105      0.082   0.000  -0.726
    3  3 3dyz       1.35282   0.53470      0.012   0.000  -0.535
    3  4 3dz2       1.36889   0.51021      0.019   0.000  -0.510
    3  5 3dxz       1.35282   0.53470      0.012   0.000  -0.535
    3  6 3dx2-y2    1.26329   0.73116      0.082   0.000  -0.727
    3     Total     8.08640   3.14185      0.191   0.000  -3.136

----------------------------------------------------------------
Total              24.00000   1.58904      1.589   0.000   0.000


Mulliken Atomic Populations:
Atom #   charge [q] valence [e]           S      Sx [e]      Sy [e]      Sz [e]  Species
     1    -0.086402    8.086402    3.141848    0.191208    0.000000    3.136024  Fe_nc
     2     0.172804    7.827196    1.206625    1.206625    0.000000   -0.000000  Fe_nc
     3    -0.086402    8.086402    3.141848    0.191208    0.000000   -3.136024  Fe_nc
-------------------------------------------------------------------------------
 Total     0.000000                1.589042    1.589042    0.000000    0.000000

siesta: Program's energy decomposition (eV):
siesta: Ebs     =      -152.172334
siesta: Eions   =      2102.576618
siesta: Ena     =        92.089899
siesta: Ekin    =      2339.329598
siesta: Enl     =     -1481.784717
siesta: Eso     =         0.000000
siesta: Edftu   =         0.000000
siesta: DEna    =       -33.774149
siesta: DUscf   =         3.942948
siesta: DUext   =         0.000000
siesta: Ex      =     -1050.577315
siesta: Ec      =       -94.394265
siesta: Exc     =     -1144.971581
siesta: EbV     =         0.000000
siesta: eta*DQ  =         0.000000
siesta: Emadel  =         0.000000
siesta: Emeta   =         0.000000
siesta: Emolmec =         0.000000
siesta: Ekinion =         0.000000
siesta: Eharris =     -2327.744619
siesta: Etot    =     -2327.744619
siesta: FreeEng =     -2327.744945

siesta: Final energy (eV):
siesta:  Band Struct. =    -152.172334
siesta:       Kinetic =    2339.329598
siesta:       Hartree =    1395.648320
siesta:         Edftu =       0.000000
siesta:       Eso     =       0.000000
siesta:    Ext. field =       0.000000
siesta:         Exch. =   -1050.577315
siesta:         Corr. =     -94.394265
siesta:     Bulk bias =       0.000000
siesta:   Exch.-corr. =   -1144.971581
siesta:  Ion-electron =   -4726.074107
siesta:       Ion-ion =    -191.676849
siesta:       Ekinion =       0.000000
siesta: D3 dispersion =       0.000000
siesta:         Total =   -2327.744619
siesta:         Fermi =      -4.354556

siesta: Atomic forces (eV/Ang):
siesta:      1    0.000000   -0.000000    0.630349
siesta:      2    0.000000   -0.000000    0.000000
siesta:      3   -0.000000    0.000000   -0.630349
siesta: ----------------------------------------
siesta:    Tot    0.000000   -0.000000    0.000000

siesta: Stress tensor (static) (eV/Ang**3):
siesta:     0.005315    0.000000   -0.000000
siesta:    -0.000000    0.005315    0.000000
siesta:    -0.000000    0.000000   -0.009339

siesta: Cell volume =        426.771969 Ang**3

siesta: Pressure (static):
siesta:                Solid            Molecule  Units
siesta:          -0.00000469         -0.00002537  Ry/Bohr**3
siesta:          -0.00043033         -0.00232910  eV/Ang**3
siesta:          -0.68945960         -3.73163047  kBar
(Free)E+ p_basis*V_orbitals  =       -2326.595863
(Free)Eharris+ p_basis*V_orbitals  =       -2326.595863

mulliken: Atomic and Orbital Populations:

Species: Fe_nc               

Atom      Orb        Charge      Spin       Svec
----------------------------------------------------------------
    1  1 4s         1.48519   0.10502     -0.015   0.000   0.104
    1  2 3dxy       1.26340   0.73105      0.082   0.000   0.726
    1  3 3dyz       1.35282   0.53470      0.012   0.000   0.535
    1  4 3dz2       1.36889   0.51021      0.019   0.000   0.510
    1  5 3dxz       1.35282   0.53470      0.012   0.000   0.535
    1  6 3dx2-y2    1.26329   0.73116      0.082   0.000   0.727
    1     Total     8.08640   3.14185      0.191   0.000   3.136

    2  1 4s         1.03162   0.03980      0.040   0.000  -0.000
    2  2 3dxy       1.47351   0.40864      0.409   0.000  -0.000
    2  3 3dyz       1.29436   0.11781      0.118   0.000  -0.000
    2  4 3dz2       1.25964   0.11412      0.114   0.000  -0.000
    2  5 3dxz       1.29436   0.11781      0.118   0.000  -0.000
    2  6 3dx2-y2    1.47371   0.40845      0.408   0.000  -0.000
    2     Total     7.82720   1.20663      1.207   0.000  -0.000

    3  1 4s         1.48519   0.10502     -0.015   0.000  -0.104
    3  2 3dxy       1.26340   0.73105      0.082   0.000  -0.726
    3  3 3dyz       1.35282   0.53470      0.012   0.000  -0.535
    3  4 3dz2       1.36889   0.51021      0.019   0.000  -0.510
    3  5 3dxz       1.35282   0.53470      0.012   0.000  -0.535
    3  6 3dx2-y2    1.26329   0.73116      0.082   0.000  -0.727
    3     Total     8.08640   3.14185      0.191   0.000  -3.136

----------------------------------------------------------------
Total              24.00000   1.58904      1.589   0.000   0.000


Mulliken Atomic Populations:
Atom #   charge [q] valence [e]           S      Sx [e]      Sy [e]      Sz [e]  Species
     1    -0.086402    8.086402    3.141848    0.191208    0.000000    3.136024  Fe_nc
     2     0.172804    7.827196    1.206625    1.206625    0.000000   -0.000000  Fe_nc
     3    -0.086402    8.086402    3.141848    0.191208    0.000000   -3.136024  Fe_nc
-------------------------------------------------------------------------------
 Total     0.000000                1.589042    1.589042    0.000000    0.000000

cite: Please see "broyden.bib" for an exhaustive BiBTeX file.
cite: Please clearly indicate Siesta version in published work: 5.2.0-17-gad84d481e
cite: This calculation has made use of the following articles
cite: which are encouraged to be cited in a published work.
        Primary SIESTA paper
          DOI: www.doi.org/10.1088/0953-8984/14/11/302


timer: Elapsed wall time (sec) =       3.493
timer: CPU execution times (sec):

Routine            Calls   Time/call    Tot.time        %
siesta                 1       3.489       3.489   100.00
Setup                  1       0.038       0.038     1.09
bands                  1       0.000       0.000     0.00
KSV_init               1       0.000       0.000     0.00
IterGeom               1       3.450       3.450    98.90
geom_init              1       0.212       0.212     6.08
state_init             1       0.014       0.014     0.41
hsparse                1       0.000       0.000     0.00
overlap                1       0.014       0.014     0.40
Setup_H0               1       0.147       0.147     4.22
naefs                  2       0.000       0.000     0.00
dnaefs                 2       0.000       0.000     0.00
MolMec                 2       0.000       0.000     0.00
kinefsm                2       0.006       0.012     0.35
nlefsm                 2       0.040       0.079     2.27
DHSCF_Init             1       0.056       0.056     1.61
DHSCF1                 1       0.010       0.010     0.29
InitMesh               1       0.010       0.010     0.29
INITMESH               1       0.000       0.000     0.00
DHSCF2                 1       0.046       0.046     1.32
REMESH                 1       0.003       0.003     0.09
REORD                540       0.000       0.093     2.66
PHION                  1       0.025       0.025     0.72
COMM_BSC            1046       0.000       0.144     4.13
POISON                66       0.005       0.329     9.44
fft                  132       0.002       0.264     7.56
setup_H               64       0.049       3.143    90.09
DHSCF                 65       0.050       3.246    93.03
DHSCF3                65       0.049       3.182    91.20
rhoofd                65       0.005       0.346     9.92
XC                    65       0.028       1.795    51.45
GXC-CellXC            65       0.024       1.592    45.64
gridxc@cellXC         65       0.024       1.592    45.63
vmat                  65       0.005       0.310     8.89
IterSCF               63       0.050       3.124    89.53
compute_dm            63       0.000       0.019     0.56
diagon                63       0.000       0.019     0.55
cdiag                 63       0.000       0.014     0.41
cdiag1                63       0.000       0.002     0.06
cdiag2                63       0.000       0.002     0.05
cdiag3                63       0.000       0.008     0.24
cdiag4                63       0.000       0.002     0.05
MIXER                 62       0.000       0.005     0.13
PostSCF                1       0.114       0.114     3.26
FINAL_HF               1       0.114       0.114     3.26
DHSCF4                 1       0.064       0.064     1.83
dfscf                  1       0.047       0.047     1.34
overfsm                1       0.000       0.000     0.00
writeHSX               1       0.000       0.000     0.00
state_analysis         1       0.000       0.000     0.00
siesta_move            1       0.000       0.000     0.00
Analysis               1       0.000       0.000     0.01
optical                1       0.000       0.000     0.00
  

>> End of run:  17-JAN-2025  13:13:52
Job completed
