Executable      : /home/fnpedron/Siesta/siesta-dev/_build_serial/Src/siesta
Version         : 5.2.0-17-gad84d481e
Architecture    : x86_64
Compiler version: GNU-11.4.0
Compiler flags  : -fallow-argument-mismatch -O3 -march=native
Environment variables: 
  SIESTA_PS_PATH: /home/fnpedron/Siesta/siesta-dev/Tests/Pseudos
Parallelisations: none
NetCDF support
NetCDF-4 support
Lua support
DFT-D3 support

Runtime information:
* Directory : /home/fnpedron/Siesta/siesta-dev/_build_serial/Tests/04.SCFMixing/chargemix/work
* Running in serial mode.
>> Start of run:  17-JAN-2025  13:14:09

                           *********************** 
                           *  WELCOME TO SIESTA  * 
                           *********************** 

 NOTE: Siesta V5 introduces some new defaults for basis-set generation
 NOTE: which might lead to slightly different numerical results.
 NOTE: Please see the manual for full details and compatibility measures.


reinit: Reading from file ../../chargemix.fdf

reinit: -----------------------------------------------------------------------
reinit: System Name: Linear Fe3 cluster.
reinit: -----------------------------------------------------------------------
reinit: System Label: chargemix
reinit: -----------------------------------------------------------------------

NOTE on units for spin output: 
{S} is the spin magnetic moment, in units of the Bohr magneton,
assuming a g-factor for the electron spin of exactly 2.
The spin magnetic moment is then numerically equal to the charge inbalance,
in units of electrons, between the spin-up and -down channels.


initatom: Reading input for the pseudopotentials and atomic orbitals ----------
Species number:   1 Atomic number:   26 Label: Fe_nc

Ground state valence configuration (from tables):   4s02  4p00  3d06  4f00

---- Processing specs for species: Fe_nc
Reading pseudopotential information in formatted form from:
  /home/fnpedron/Siesta/siesta-dev/Tests/Pseudos/Fe_nc.psf

---- Pseudopotential check for Fe

Pseudized shells:
4s( 1.00) rc: 2.00
4p( 0.00) rc: 2.00
3d( 7.00) rc: 2.00
4f( 0.00) rc: 2.00
Valence configuration for ps generation: (assumed as above)
For Fe_nc, standard SIESTA heuristics set lmxkb to 3
 (one more than the basis l, including polarization orbitals).
Use PS.lmax or PS.KBprojectors blocks to override.

<basis_specs>
===============================================================================
Fe_nc                Z=  26    Mass=  55.845        Charge= 0.17977+309
Lmxo=2 Lmxkb= 3    BasisType=split      Semic=F
L=0  Nsemic=0  Cnfigmx=4
          i=1  nzeta=1  polorb=0  (4s)
            splnorm:   0.15000    
               vcte:    40.000    
               rinn:  -0.90000    
               qcoe:    0.0000    
               qyuk:    0.0000    
               qwid:   0.10000E-01
                rcs:    0.0000    
            lambdas:    1.0000    
L=1  Nsemic=0  Cnfigmx=4
          i=1  nzeta=0  polorb=0  (4p)  (empty shell (??) )
L=2  Nsemic=0  Cnfigmx=3
          i=1  nzeta=1  polorb=0  (3d)
            splnorm:   0.15000    
               vcte:    40.000    
               rinn:  -0.90000    
               qcoe:    0.0000    
               qyuk:    0.0000    
               qwid:   0.10000E-01
                rcs:    0.0000    
            lambdas:    1.0000    
-------------------------------------------------------------------------------
L=0  Nkbl=1  erefs: 0.17977+309
L=1  Nkbl=1  erefs: 0.17977+309
L=2  Nkbl=1  erefs: 0.17977+309
L=3  Nkbl=1  erefs: 0.17977+309
===============================================================================
</basis_specs>

Using PAO.SplitTailNorm
atom: Called for Fe_nc                 (Z =  26)
Maximum radius (at nrval) set to   50.00000 8518

read_vps: Pseudopotential generation method:
read_vps: ATM3      Troullier-Martins                       
Valence charge in pseudo generation:    8.00000

read_vps: Pseudopotential includes a core correction:
read_vps: Pseudo-core for xc-correction

xc_check: Exchange-correlation functional:
xc_check: Ceperley-Alder
V l=0 = -2*Zval/r beyond r=  2.8472
V l=1 = -2*Zval/r beyond r=  2.8472
V l=2 = -2*Zval/r beyond r=  2.8472
V l=3 = -2*Zval/r beyond r=  2.8472
All V_l potentials equal beyond r=  1.9894
This should be close to max(r_c) in ps generation
All pots = -2*Zval/r beyond r=  2.8472
Using large-core scheme (fit) for Vlocal

atom: Estimated core radius    2.84716
Fit of Vlocal with continuous 2nd derivative
Fitting vlocal at       1.9954
Choosing vlocal chloc cutoff:  5741  3.100644
qtot up to nchloc:    8.00000259
atom: Maximum radius for chlocal:    3.10064
atom: Maximum radius for r*vlocal+2*Zval:    3.10064

KBgen: Kleinman-Bylander projectors: 
GHOST: No ghost state for L =  0
   l= 0   rc=  1.991366   el= -0.319855   Ekb=  3.826230   kbcos=  0.253712
GHOST: No ghost state for L =  1
   l= 1   rc=  2.019582   el= -0.070931   Ekb=  3.335986   kbcos=  0.155791
GHOST: No ghost state for L =  2
   l= 2   rc=  1.989365   el= -0.307264   Ekb=-12.632066   kbcos= -0.657060
GHOST: No ghost state for L =  3
   l= 3   rc=  2.015527   el=  0.019538   Ekb= -1.701666   kbcos= -0.006384

KBgen: Total number of Kleinman-Bylander projectors:  16
atom: -------------------------------------------------------------------------

atom: SANKEY-TYPE ORBITALS:

SPLIT: Orbitals with angular momentum L= 0

SPLIT: Basis orbitals for state 4s

SPLIT: PAO cut-off radius determined from an
SPLIT: energy shift=  0.010000 Ry
Split based on tail norm

   izeta = 1
                 lambda =    1.000000
                     rc =    7.355669
                 energy =   -0.308198
                kinetic =    0.284874
    potential(screened) =   -0.593072
       potential(ionic) =   -5.763042

SPLIT: Orbitals with angular momentum L= 2

SPLIT: Basis orbitals for state 3d

SPLIT: PAO cut-off radius determined from an
SPLIT: energy shift=  0.010000 Ry
Split based on tail norm

   izeta = 1
                 lambda =    1.000000
                     rc =    4.584362
                 energy =   -0.296412
                kinetic =    8.773647
    potential(screened) =   -9.070058
       potential(ionic) =  -18.006145
atom: Total number of Sankey-type orbitals:  6

atm_pop: Valence configuration (for local Pseudopot. screening):
 4s( 2.00)                                                            
 4p( 0.00)                                                            
 3d( 6.00)                                                            
Vna: chval, zval:    8.00000   8.00000

Vna:  Cut-off radius for the neutral-atom potential:   7.355669
comcore: Pseudo-core radius Rcore=  3.839063

atom: _________________________________________________________________________

prinput: Basis input 

PAO.BasisType split     

%block ChemicalSpeciesLabel
    1   26 Fe_nc                   # Species index, atomic number, species label
%endblock ChemicalSpeciesLabel

%block PAO.Basis                 # Define Basis set
# WARNING: This information might be incomplete!
Fe_nc                 2                    # Species label, number of l-shells
 n=4   0   1                         # n, l, Nzeta 
   7.356   
   1.000   
 n=3   2   1                         # n, l, Nzeta 
   4.584   
   1.000   
%endblock PAO.Basis

prinput: ----------------------------------------------------------------------

Dumping basis to NetCDF file Fe_nc.ion.nc
coor:   Atomic-coordinates input format  =     Cartesian coordinates
coor:                                            (in Bohr units)

siesta: Atomic coordinates (Bohr) and species
siesta:      0.00000   0.00000   3.64400  1        1
siesta:      0.00000   0.00000   0.00000  1        2
siesta:      0.00000   0.00000  -3.64400  1        3

siesta: System type = bulk      

initatomlists: Number of atoms, orbitals, and projectors:      3    18    48

siesta: ******************** Simulation parameters ****************************
siesta:
siesta: The following are some of the parameters of the simulation.
siesta: A complete list of the parameters used, including default values,
siesta: can be found in file out.fdf
siesta:
redata: Spin configuration                          = non-collinear
redata: Number of spin components                   = 4
redata: Time-Reversal Symmetry                      = F
redata: Spin spiral                                 = F
redata: Long output                                 =   F
redata: Number of Atomic Species                    =        1
redata: Charge density info will appear in .RHO file
redata: Write Mulliken charges (when)               = geometry+end
redata: Write Mulliken Pop.                         = Atomic and Orbital charges
redata: Write Hirshfeld charges (when)              = none
redata: Write Voronoi charges (when)                = none
redata: Write spin charge (when)                    = scf
redata: Matel table size (NRTAB)                    =     1024
redata: Mesh Cutoff                                 =   150.0000 Ry
redata: Net charge of the system                    =     0.0000 |e|
redata: Min. number of SCF Iter                     =        0
redata: Max. number of SCF Iter                     =       15
redata: SCF mix quantity                            = charge
redata: Mix DM or H after convergence               =   F
redata: Recompute H after scf cycle                 =   F
redata: Mix DM in first SCF step                    =   T
redata: Write Pulay info on disk                    =   F
redata: New DM Occupancy tolerance                  = 0.000000000001
redata: No kicks to SCF
redata: DM Mixing Weight for Kicks                  =     0.5000
redata: Require Harris convergence for SCF          =   F
redata: Harris energy tolerance for SCF             =     0.000100 eV
redata: Require DM convergence for SCF              =   T
redata: DM tolerance for SCF                        =     0.000100
redata: Require EDM convergence for SCF             =   F
redata: EDM tolerance for SCF                       =     0.001000 eV
redata: Require H convergence for SCF               =   T
redata: Hamiltonian tolerance for SCF               =     0.001000 eV
redata: Require (free) Energy convergence for SCF   =   F
redata: (free) Energy tolerance for SCF             =     0.000100 eV
redata: Using DFT-D3 dispersion                     =   F
redata: Using Saved Data (generic)                  =   F
redata: Use continuation files for DM               =   T
redata: Neglect nonoverlap interactions             =   F
redata: Method of Calculation                       = Diagonalization
redata: Electronic Temperature                      =   300.0000 K
redata: Fix the spin of the system                  =   F
redata: Max. number of TDED Iter                    =        1
redata: Number of TDED substeps                     =        3
redata: Dynamics option                             = Single-point calculation
mix.SCF: Pulay mixing                            = Pulay
mix.SCF:    Variant                              = stable
mix.SCF:    History steps                        = 2
mix.SCF:    Linear mixing weight                 =     0.500000
mix.SCF:    Mixing weight                        =     0.500000
mix.SCF:    SVD condition                        = 0.1000E-07
mix.SCF: Spin-component mixing                   all
redata: Save all siesta data in one NC              =   F
redata: ***********************************************************************

%block SCF.Mixers
  Pulay
%endblock SCF.Mixers

%block SCF.Mixer.Pulay
  # Mixing method
  method pulay
  variant stable

  # Mixing options
  weight 0.5000
  weight.linear 0.5000
  history 2
%endblock SCF.Mixer.Pulay

DM_history_depth set to one: no extrapolation allowed by default for geometry relaxation
Size of DM history Fstack: 1
Total number of electrons:    24.000000
Total ionic charge:    24.000000

siesta: k-grid: Number of k-points = 1
siesta: k-point is Gamma-only

diag: Algorithm                                     = D&C
diag: Used triangular part                          = Lower
diag: Absolute tolerance                            =  0.100E-15
diag: Orthogonalization factor                      =  0.100E-05
diag: Memory factor                                 =  1.0000


ts: **************************************************************
ts: Save H and S matrices                           =    F
ts: Save DM and EDM matrices                        =    F
ts: Only save the overlap matrix S                  =    F
ts: **************************************************************

************************ Begin: TS CHECKS AND WARNINGS ************************
************************ End: TS CHECKS AND WARNINGS **************************


                     ====================================
                        Single-point calculation
                     ====================================

outcell: Unit cell vectors (Ang):
        6.350127    0.000000    0.000000
        0.000000    6.350127    0.000000
        0.000000    0.000000   10.583544

outcell: Cell vector modules (Ang)   :    6.350127    6.350127   10.583544
outcell: Cell angles (23,13,12) (deg):     90.0000     90.0000     90.0000
outcell: Cell volume (Ang**3)        :    426.7720
Gamma-point calculation with interaction between periodic images
Some features might not work optimally:
e.g. DM initialization from atomic data
<dSpData1D:S at geom step 0
  <sparsity:sparsity for geom step 0
    nrows_g=18 nrows=18 sparsity=1.0000 nnzs=324, refcount: 7>
  <dData1D:(new from dSpData1D) n=324, refcount: 1>
refcount: 1>
new_DM -- step:     1
Initializing Density Matrix...

Attempting to read DM from file... Failed...
DM filled with atomic data (user-defined):
<dSpData2D:DM initialized from atoms
  <sparsity:sparsity for geom step 0
    nrows_g=18 nrows=18 sparsity=1.0000 nnzs=324, refcount: 8>
  <dData2D:DM n=324 m=4, refcount: 1>
refcount: 1>
No. of atoms with KB's overlaping orbs in proc 0. Max # of overlaps:       3      18

InitMesh: MESH = 48 x 48 x 80 = 184320
InitMesh: Mesh cutoff (required, used) =   150.000   157.914 Ry
New grid distribution [1]: sub = 2
Thomas-Fermi K2 (Ry):    0.798589
L max (bohr):   20.000000
q0_size = 2pi/L (Bohr^-1):    0.314159
q0_size^2 (Ry) :    0.098696
Kerker preconditioner q0^2 (Ry):    0.000000
 Number of stars:         6850
Number of G's in DIIS:       1294

Setting up DIIS for rho(G) -------
Number of G's treated with DIIS in Node 0:   1294
Minimum and maximum g2 in DIIS:      0.099     8.872
Metric preconditioner cutoff default (Ry):      2.412 n: 20
Metric preconditioner cutoff (Ry):      2.412
Max and min weights:    25.4372    1.2719

stepf: Fermi-Dirac step function
 Max |\Delta rho(G)|:     1.847175
      G2      rho_in(G) (R, C)      Diff_rho(G) (R, C)   damping
  0.0000    12.00000   0.00000       0.00000   0.00000    0.0000
  0.0987     6.85288   2.64757       0.55387  -0.56976    1.0000
  0.2742    10.10931  -0.00000       0.89410   0.00000    1.0000
  0.3729     5.81784   2.43034       0.97558  -0.52709    1.0000
  0.3948    -0.99806  -1.99506       0.71866   0.48186    1.0000
  0.5483     8.69405  -0.00000       1.41834  -0.00000    1.0000
  0.6470     5.03725   2.23555       1.20797  -0.48845    1.0000
  0.6689    -0.86537  -1.83545       0.59742   0.44617    1.0000
  0.8883    -2.25774  -0.65942       0.29127  -0.00265    1.0000
  0.9431    -0.76279   1.69189       0.50698  -0.41381    1.0000
  0.0000    12.00000   0.00000       0.00000   0.00000    0.0000
  0.0987     6.85288  -2.64757       0.55387   0.56976    1.0000
  0.2742    10.10931  -0.00000       0.89410  -0.00000    1.0000
  0.3729     5.81784  -2.43034       0.97558   0.52709    1.0000
  0.3948    -0.99806   1.99506       0.71866  -0.48186    1.0000
  0.5483     8.69405  -0.00000       1.41834  -0.00000    1.0000
  0.6470     5.03725  -2.23555       1.20797   0.48845    1.0000
  0.6689    -0.86537   1.83545       0.59742  -0.44617    1.0000
  0.8883    -2.25774   0.65942       0.29127   0.00265    1.0000
  0.9431    -0.76279  -1.69189       0.50698   0.41381    1.0000
  0.0000     0.75000   0.00000       0.01424   0.00000    0.0000
  0.0987     0.72685  -0.00000      -0.24327  -0.00000    1.0000
  0.2742     0.68793  -0.00000       0.02370  -0.00000    1.0000
  0.3729     0.66722  -0.00000      -0.21726  -0.00000    1.0000
  0.3948     0.66272   0.00000      -0.61886   0.00000    1.0000
  0.5483     0.63233  -0.00000       0.03260  -0.00000    1.0000
  0.6470     0.61374  -0.00000      -0.19321  -0.00000    1.0000
  0.6689     0.60970  -0.00000      -0.57254   0.00000    1.0000
  0.8883     0.57116  -0.00000      -0.56839   0.00000    1.0000
  0.9431     0.56202  -0.00000      -0.52965  -0.00000    1.0000
  0.0000     0.00000   0.00000       0.00000   0.00000    0.0000
  0.0987     0.00000   0.00000       0.00000   0.00000    1.0000
  0.2742     0.00000   0.00000       0.00000   0.00000    1.0000
  0.3729     0.00000   0.00000       0.00000   0.00000    1.0000
  0.3948     0.00000   0.00000       0.00000   0.00000    1.0000
  0.5483     0.00000   0.00000       0.00000   0.00000    1.0000
  0.6470     0.00000   0.00000       0.00000   0.00000    1.0000
  0.6689     0.00000   0.00000       0.00000   0.00000    1.0000
  0.8883     0.00000   0.00000       0.00000   0.00000    1.0000
  0.9431     0.00000   0.00000       0.00000   0.00000    1.0000

siesta: Program's energy decomposition (eV):
siesta: Ebs     =      -285.749007
siesta: Eions   =      2102.576618
siesta: Ena     =        92.089899
siesta: Ekin    =      2830.136509
siesta: Enl     =     -1830.436929
siesta: Eso     =         0.000000
siesta: Edftu   =         0.000000
siesta: DEna    =      -119.241795
siesta: DUscf   =        55.250613
siesta: DUext   =         0.000000
siesta: Ex      =     -1119.237696
siesta: Ec      =       -98.052083
siesta: Exc     =     -1217.289779
siesta: EbV     =         0.000000
siesta: eta*DQ  =         0.000000
siesta: Emadel  =         0.000000
siesta: Emeta   =         0.000000
siesta: Emolmec =         0.000000
siesta: Ekinion =         0.000000
siesta: Eharris =         0.000000
siesta: Etot    =     -2292.068099
siesta: FreeEng =     -2292.162148

        iscf     Eharris(eV)        E_KS(eV)     FreeEng(eV)     dDmax    Ef(eV) dHmax(eV)
   scf:    1        0.000000    -2292.068099    -2292.162148  0.995856 -9.385094 12.983904
     spin moment: {S} , |S| = {    1.52849    0.00000   -0.00000 }     1.52849
timer: Routine,Calls,Time,% = IterSCF        1       0.133  36.87
 Max |\Delta rho(G)|:     5.735004
      G2      rho_in(G) (R, C)      Diff_rho(G) (R, C)   damping
  0.0000    12.00000   0.00000      -0.00000   0.00000    0.0000
  0.0987     7.40675   2.07782      -2.68296  -1.37453    1.0000
  0.2742    11.00341  -0.00000      -0.91892   0.00000    1.0000
  0.3729     6.79342   1.90325      -2.83181  -1.23525    1.0000
  0.3948    -0.27940  -1.51320      -5.65612   0.94795    1.0000
  0.5483    10.11239  -0.00000      -1.45687  -0.00000    1.0000
  0.6470     6.24523   1.74710      -2.84870  -1.11170    1.0000
  0.6689    -0.26796  -1.38928      -5.00939   0.85949    1.0000
  0.8883    -1.96646  -0.66207      -4.74970   0.60875    1.0000
  0.9431    -0.25581   1.27808      -4.48495  -0.77906    1.0000
  0.0000    12.00000   0.00000      -0.00000   0.00000    0.0000
  0.0987     7.40675  -2.07782      -2.68296   1.37453    1.0000
  0.2742    11.00341  -0.00000      -0.91892  -0.00000    1.0000
  0.3729     6.79342  -1.90325      -2.83181   1.23525    1.0000
  0.3948    -0.27940   1.51320      -5.65612  -0.94795    1.0000
  0.5483    10.11239  -0.00000      -1.45687   0.00000    1.0000
  0.6470     6.24523  -1.74710      -2.84870   1.11170    1.0000
  0.6689    -0.26796   1.38928      -5.00939  -0.85949    1.0000
  0.8883    -1.96646   0.66207      -4.74970  -0.60875    1.0000
  0.9431    -0.25581  -1.27808      -4.48495   0.77906    1.0000
  0.0000     0.76424   0.00000      -0.53024   0.00000    0.0000
  0.0987     0.48359  -0.00000      -0.35982   0.00000    1.0000
  0.2742     0.71163  -0.00000      -0.50983  -0.00000    1.0000
  0.3729     0.44995  -0.00000      -0.34853   0.00000    1.0000
  0.3948     0.04386   0.00000      -0.08916  -0.00000    1.0000
  0.5483     0.66493  -0.00000      -0.48614   0.00000    1.0000
  0.6470     0.42053  -0.00000      -0.33456   0.00000    1.0000
  0.6689     0.03716   0.00000      -0.09168  -0.00000    1.0000
  0.8883     0.00277   0.00000      -0.07771   0.00000    1.0000
  0.9431     0.03237  -0.00000      -0.09188   0.00000    1.0000
  0.0000     0.00000   0.00000       0.00000   0.00000    0.0000
  0.0987     0.00000   0.00000       0.00000   0.00000    1.0000
  0.2742     0.00000   0.00000       0.00000   0.00000    1.0000
  0.3729     0.00000   0.00000       0.00000   0.00000    1.0000
  0.3948     0.00000   0.00000       0.00000   0.00000    1.0000
  0.5483     0.00000   0.00000       0.00000   0.00000    1.0000
  0.6470     0.00000   0.00000       0.00000   0.00000    1.0000
  0.6689     0.00000   0.00000       0.00000   0.00000    1.0000
  0.8883     0.00000   0.00000       0.00000   0.00000    1.0000
  0.9431     0.00000   0.00000       0.00000   0.00000    1.0000
   scf:    2        0.000000    -1961.310530    -1961.310538  2.338392  4.797041 33.781836
     spin moment: {S} , |S| = {    0.46800    0.00000    0.00000 }     0.46800
 Max |\Delta rho(G)|:     4.093451
      G2      rho_in(G) (R, C)      Diff_rho(G) (R, C)   damping
  0.0000    12.00000   0.00000      -0.00000   0.00000    0.0000
  0.0987     6.73601   1.73418       0.86867   1.35441    1.0000
  0.2742    10.77368  -0.00000      -0.67293   0.00000    1.0000
  0.3729     6.08547   1.59444       0.51396   1.25881    1.0000
  0.3948    -1.69343  -1.27621       3.22823  -0.95186    1.0000
  0.5483     9.74817  -0.00000      -1.05397  -0.00000    1.0000
  0.6470     5.53305   1.46918       0.29062   1.17121    1.0000
  0.6689    -1.52030  -1.17441       3.07515  -0.89016    1.0000
  0.8883    -3.15389  -0.50988       4.07803  -0.35495    1.0000
  0.9431    -1.37705   1.08331       2.90072   0.83280    1.0000
  0.0000    12.00000   0.00000      -0.00000   0.00000    0.0000
  0.0987     6.73601  -1.73418       0.86867  -1.35441    1.0000
  0.2742    10.77368  -0.00000      -0.67293  -0.00000    1.0000
  0.3729     6.08547  -1.59444       0.51396  -1.25881    1.0000
  0.3948    -1.69343   1.27621       3.22823   0.95186    1.0000
  0.5483     9.74817  -0.00000      -1.05397   0.00000    1.0000
  0.6470     5.53305  -1.46918       0.29062  -1.17121    1.0000
  0.6689    -1.52030   1.17441       3.07515   0.89016    1.0000
  0.8883    -3.15389   0.50988       4.07803   0.35495    1.0000
  0.9431    -1.37705  -1.08331       2.90072  -0.83280    1.0000
  0.0000     0.63168   0.00000      -0.00329   0.00000    0.0000
  0.0987     0.39363  -0.00000      -0.14498  -0.00000    1.0000
  0.2742     0.58417  -0.00000      -0.00392  -0.00000    1.0000
  0.3729     0.36282  -0.00000      -0.13244  -0.00000    1.0000
  0.3948     0.02157  -0.00000      -0.37594   0.00000    1.0000
  0.5483     0.54340  -0.00000      -0.00635   0.00000    1.0000
  0.6470     0.33689  -0.00000      -0.12296  -0.00000    1.0000
  0.6689     0.01424   0.00000      -0.34247   0.00000    1.0000
  0.8883    -0.01665   0.00000      -0.40378   0.00000    1.0000
  0.9431     0.00940  -0.00000      -0.31389  -0.00000    1.0000
  0.0000     0.00000   0.00000       0.00000   0.00000    0.0000
  0.0987     0.00000   0.00000       0.00000   0.00000    1.0000
  0.2742     0.00000   0.00000       0.00000   0.00000    1.0000
  0.3729     0.00000   0.00000       0.00000   0.00000    1.0000
  0.3948     0.00000   0.00000       0.00000   0.00000    1.0000
  0.5483     0.00000   0.00000       0.00000   0.00000    1.0000
  0.6470     0.00000   0.00000       0.00000   0.00000    1.0000
  0.6689     0.00000   0.00000       0.00000   0.00000    1.0000
  0.8883     0.00000   0.00000       0.00000   0.00000    1.0000
  0.9431     0.00000   0.00000       0.00000   0.00000    1.0000
   scf:    3        0.000000    -2196.086587    -2196.169432  0.997907  5.755066 28.608102
     spin moment: {S} , |S| = {    1.25678    0.00000   -0.00000 }     1.25678
 Max |\Delta rho(G)|:     1.944845
      G2      rho_in(G) (R, C)      Diff_rho(G) (R, C)   damping
  0.0000    12.00000   0.00000       0.00000   0.00000    0.0000
  0.0987     6.86949   1.94231       0.50405   1.12334    1.0000
  0.2742    10.67027   0.00000      -0.53541  -0.00000    1.0000
  0.3729     6.16445   1.78788       0.19982   1.00457    1.0000
  0.3948    -1.19736  -1.42248       1.68873  -0.95942    1.0000
  0.5483     9.58621  -0.00000      -0.85863   0.00000    1.0000
  0.6470     5.57771   1.64915       0.00167   0.89953    1.0000
  0.6689    -1.04776  -1.31120       1.60706  -0.86542    1.0000
  0.8883    -2.52723  -0.56442       1.92490  -0.27779    1.0000
  0.9431    -0.93131   1.21129       1.51406   0.78203    1.0000
  0.0000    12.00000   0.00000       0.00000   0.00000    0.0000
  0.0987     6.86949  -1.94231       0.50405  -1.12334    1.0000
  0.2742    10.67027  -0.00000      -0.53541   0.00000    1.0000
  0.3729     6.16445  -1.78788       0.19982  -1.00457    1.0000
  0.3948    -1.19736   1.42248       1.68873   0.95942    1.0000
  0.5483     9.58621  -0.00000      -0.85863  -0.00000    1.0000
  0.6470     5.57771  -1.64915       0.00167  -0.89953    1.0000
  0.6689    -1.04776   1.31120       1.60706   0.86542    1.0000
  0.8883    -2.52723   0.56442       1.92490   0.27779    1.0000
  0.9431    -0.93131  -1.21129       1.51406  -0.78203    1.0000
  0.0000     0.63086   0.00000      -0.05156   0.00000    0.0000
  0.0987     0.37135  -0.00000      -0.11410   0.00000    1.0000
  0.2742     0.58357  -0.00000      -0.05895   0.00000    1.0000
  0.3729     0.34247  -0.00000      -0.10738   0.00000    1.0000
  0.3948    -0.03620   0.00000      -0.23369  -0.00000    1.0000
  0.5483     0.54242   0.00000      -0.06511  -0.00000    1.0000
  0.6470     0.31799  -0.00000      -0.10249   0.00000    1.0000
  0.6689    -0.03838   0.00000      -0.20519  -0.00000    1.0000
  0.8883    -0.07870   0.00000      -0.27434  -0.00000    1.0000
  0.9431    -0.03884  -0.00000      -0.18195   0.00000    1.0000
  0.0000     0.00000   0.00000       0.00000   0.00000    0.0000
  0.0987     0.00000   0.00000       0.00000   0.00000    1.0000
  0.2742     0.00000   0.00000       0.00000   0.00000    1.0000
  0.3729     0.00000   0.00000       0.00000   0.00000    1.0000
  0.3948     0.00000   0.00000       0.00000   0.00000    1.0000
  0.5483     0.00000   0.00000       0.00000   0.00000    1.0000
  0.6470     0.00000   0.00000       0.00000   0.00000    1.0000
  0.6689     0.00000   0.00000       0.00000   0.00000    1.0000
  0.8883     0.00000   0.00000       0.00000   0.00000    1.0000
  0.9431     0.00000   0.00000       0.00000   0.00000    1.0000
   scf:    4        0.000000    -2283.977496    -2283.991394  0.783349  0.745505  6.270072
     spin moment: {S} , |S| = {    1.15859    0.00000    0.00000 }     1.15859
 Max |\Delta rho(G)|:     4.650206
      G2      rho_in(G) (R, C)      Diff_rho(G) (R, C)   damping
  0.0000    12.00000   0.00000       0.00000   0.00000    0.0000
  0.0987     6.96273   2.18315      -1.68532  -1.94418    1.0000
  0.2742    10.55704  -0.00000      -0.15887  -0.00000    1.0000
  0.3729     6.19177   2.00054      -1.61889  -1.78508    1.0000
  0.3948    -0.90308  -1.63982      -4.38604   1.52566    1.0000
  0.5483     9.40319  -0.00000      -0.25383   0.00000    1.0000
  0.6470     5.56166   1.83708      -1.53598  -1.64028    1.0000
  0.6689    -0.76788  -1.50545      -3.95441   1.39432    1.0000
  0.8883    -2.21443  -0.62284      -4.62531   0.48050    1.0000
  0.9431    -0.66782   1.38521      -3.58595  -1.27764    1.0000
  0.0000    12.00000   0.00000       0.00000   0.00000    0.0000
  0.0987     6.96273  -2.18315      -1.68532   1.94418    1.0000
  0.2742    10.55704  -0.00000      -0.15887  -0.00000    1.0000
  0.3729     6.19177  -2.00054      -1.61889   1.78508    1.0000
  0.3948    -0.90308   1.63982      -4.38604  -1.52566    1.0000
  0.5483     9.40319  -0.00000      -0.25383   0.00000    1.0000
  0.6470     5.56166  -1.83708      -1.53598   1.64028    1.0000
  0.6689    -0.76788   1.50545      -3.95441  -1.39432    1.0000
  0.8883    -2.21443   0.62284      -4.62531  -0.48050    1.0000
  0.9431    -0.66782  -1.38521      -3.58595   1.27764    1.0000
  0.0000     0.61797   0.00000      -0.60971   0.00000    0.0000
  0.0987     0.34731   0.00000      -0.34331  -0.00000    1.0000
  0.2742     0.56711  -0.00000      -0.55918   0.00000    1.0000
  0.3729     0.31961   0.00000      -0.31596  -0.00000    1.0000
  0.3948    -0.08094  -0.00000       0.07813  -0.00000    1.0000
  0.5483     0.52436  -0.00000      -0.51678   0.00000    1.0000
  0.6470     0.29598   0.00000      -0.29259  -0.00000    1.0000
  0.6689    -0.07697  -0.00000       0.07397  -0.00000    1.0000
  0.8883    -0.13337  -0.00000       0.12998   0.00000    1.0000
  0.9431    -0.07248   0.00000       0.06943   0.00000    1.0000
  0.0000     0.00000   0.00000       0.00000   0.00000    0.0000
  0.0987     0.00000   0.00000       0.00000   0.00000    1.0000
  0.2742     0.00000   0.00000       0.00000   0.00000    1.0000
  0.3729     0.00000   0.00000       0.00000   0.00000    1.0000
  0.3948     0.00000   0.00000       0.00000   0.00000    1.0000
  0.5483     0.00000   0.00000       0.00000   0.00000    1.0000
  0.6470     0.00000   0.00000       0.00000   0.00000    1.0000
  0.6689     0.00000   0.00000       0.00000   0.00000    1.0000
  0.8883     0.00000   0.00000       0.00000   0.00000    1.0000
  0.9431     0.00000   0.00000       0.00000   0.00000    1.0000
   scf:    5        0.000000    -2057.700721    -2057.700721  1.607601 -1.139421  4.034426
     spin moment: {S} , |S| = {    0.01652    0.00000    0.00000 }     0.01652
 Max |\Delta rho(G)|:     2.407064
      G2      rho_in(G) (R, C)      Diff_rho(G) (R, C)   damping
  0.0000    12.00000   0.00000      -0.00000   0.00000    0.0000
  0.0987     6.82928   2.01218       0.81912   1.66456    1.0000
  0.2742    10.54229  -0.00000      -0.18671  -0.00000    1.0000
  0.3729     6.06512   1.84619       0.61480   1.49945    1.0000
  0.3948    -1.22284  -1.49440       2.05080  -1.26022    1.0000
  0.5483     9.38100  -0.00000      -0.30023   0.00000    1.0000
  0.6470     5.44333   1.69761       0.47084   1.35662    1.0000
  0.6689    -1.05285  -1.37441       1.85802  -1.14669    1.0000
  0.8883    -2.52456  -0.58168       1.96646  -0.49063    1.0000
  0.9431    -0.92393   1.26680       1.69127   1.04585    1.0000
  0.0000    12.00000   0.00000      -0.00000   0.00000    0.0000
  0.0987     6.82928  -2.01218       0.81912  -1.66456    1.0000
  0.2742    10.54229  -0.00000      -0.18671   0.00000    1.0000
  0.3729     6.06512  -1.84619       0.61480  -1.49945    1.0000
  0.3948    -1.22284   1.49440       2.05080   1.26022    1.0000
  0.5483     9.38100  -0.00000      -0.30023  -0.00000    1.0000
  0.6470     5.44333  -1.69761       0.47084  -1.35662    1.0000
  0.6689    -1.05285   1.37441       1.85802   1.14669    1.0000
  0.8883    -2.52456   0.58168       1.96646   0.49063    1.0000
  0.9431    -0.92393  -1.26680       1.69127  -1.04585    1.0000
  0.0000     0.46554   0.00000       0.20816   0.00000    0.0000
  0.0987     0.31707   0.00000      -0.02834   0.00000    1.0000
  0.2742     0.52204  -0.00000       0.08632   0.00000    1.0000
  0.3729     0.29200   0.00000      -0.02887   0.00000    1.0000
  0.3948    -0.07899  -0.00000      -0.25636  -0.00000    1.0000
  0.5483     0.48327   0.00000       0.06930  -0.00000    1.0000
  0.6470     0.27060   0.00000      -0.02986   0.00000    1.0000
  0.6689    -0.07546  -0.00000      -0.22734  -0.00000    1.0000
  0.8883    -0.12569  -0.00000      -0.29990   0.00000    1.0000
  0.9431    -0.07136   0.00000      -0.20351   0.00000    1.0000
  0.0000     0.00000   0.00000       0.00000   0.00000    0.0000
  0.0987     0.00000   0.00000       0.00000   0.00000    1.0000
  0.2742     0.00000   0.00000       0.00000   0.00000    1.0000
  0.3729     0.00000   0.00000       0.00000   0.00000    1.0000
  0.3948     0.00000   0.00000       0.00000   0.00000    1.0000
  0.5483     0.00000   0.00000       0.00000   0.00000    1.0000
  0.6470     0.00000   0.00000       0.00000   0.00000    1.0000
  0.6689     0.00000   0.00000       0.00000   0.00000    1.0000
  0.8883     0.00000   0.00000       0.00000   0.00000    1.0000
  0.9431     0.00000   0.00000       0.00000   0.00000    1.0000
   scf:    6        0.000000    -2277.286071    -2277.286071  0.974813 -1.494247  5.904828
     spin moment: {S} , |S| = {    1.34741    0.00000    0.00000 }     1.34741
 Max |\Delta rho(G)|:     2.083044
      G2      rho_in(G) (R, C)      Diff_rho(G) (R, C)   damping
  0.0000    12.00000   0.00000      -0.00000   0.00000    0.0000
  0.0987     6.86253   2.19793       0.71868   1.41227    1.0000
  0.2742    10.49678  -0.00000      -0.11819  -0.00000    1.0000
  0.3729     6.06369   2.01014       0.56359   1.27169    1.0000
  0.3948    -1.16494  -1.63460       1.80945  -1.03197    1.0000
  0.5483     9.30741  -0.00000      -0.18948   0.00000    1.0000
  0.6470     5.41987   1.84328       0.45203   1.15065    1.0000
  0.6689    -1.00056  -1.50092       1.63264  -0.94083    1.0000
  0.8883    -2.51369  -0.64308       1.76370  -0.45036    1.0000
  0.9431    -0.87643   1.38120       1.48051   0.85962    1.0000
  0.0000    12.00000   0.00000      -0.00000   0.00000    0.0000
  0.0987     6.86253  -2.19793       0.71868  -1.41227    1.0000
  0.2742    10.49678  -0.00000      -0.11819   0.00000    1.0000
  0.3729     6.06369  -2.01014       0.56359  -1.27169    1.0000
  0.3948    -1.16494   1.63460       1.80945   1.03197    1.0000
  0.5483     9.30741  -0.00000      -0.18948   0.00000    1.0000
  0.6470     5.41987  -1.84328       0.45203  -1.15065    1.0000
  0.6689    -1.00056   1.50092       1.63264   0.94083    1.0000
  0.8883    -2.51369   0.64308       1.76370   0.45036    1.0000
  0.9431    -0.87643  -1.38120       1.48051  -0.85961    1.0000
  0.0000     0.51758   0.00000       0.09126   0.00000    0.0000
  0.0987     0.28711   0.00000      -0.02064  -0.00000    1.0000
  0.2742     0.49752  -0.00000       0.05498   0.00000    1.0000
  0.3729     0.26380   0.00000      -0.02048  -0.00000    1.0000
  0.3948    -0.12153  -0.00000      -0.17567   0.00000    1.0000
  0.5483     0.45836  -0.00000       0.04504  -0.00000    1.0000
  0.6470     0.24381   0.00000      -0.02096  -0.00000    1.0000
  0.6689    -0.11262  -0.00000      -0.15663   0.00000    1.0000
  0.8883    -0.17337  -0.00000      -0.21273  -0.00000    1.0000
  0.9431    -0.10421   0.00000      -0.14064  -0.00000    1.0000
  0.0000     0.00000   0.00000       0.00000   0.00000    0.0000
  0.0987     0.00000   0.00000       0.00000   0.00000    1.0000
  0.2742     0.00000   0.00000       0.00000   0.00000    1.0000
  0.3729     0.00000   0.00000       0.00000   0.00000    1.0000
  0.3948     0.00000   0.00000       0.00000   0.00000    1.0000
  0.5483     0.00000   0.00000       0.00000   0.00000    1.0000
  0.6470     0.00000   0.00000       0.00000   0.00000    1.0000
  0.6689     0.00000   0.00000       0.00000   0.00000    1.0000
  0.8883     0.00000   0.00000       0.00000   0.00000    1.0000
  0.9431     0.00000   0.00000       0.00000   0.00000    1.0000
   scf:    7        0.000000    -2287.726649    -2287.726649  0.125150 -2.415698  1.228166
     spin moment: {S} , |S| = {    1.21769    0.00000   -0.00000 }     1.21769
 Max |\Delta rho(G)|:     0.667171
      G2      rho_in(G) (R, C)      Diff_rho(G) (R, C)   damping
  0.0000    12.00000   0.00000       0.00000   0.00000    0.0000
  0.0987     6.95945   2.66981      -0.23676  -0.33403    1.0000
  0.2742    10.40964  -0.00000      -0.02070  -0.00000    1.0000
  0.3729     6.08537   2.42579      -0.22365  -0.30682    1.0000
  0.3948    -0.98107  -1.96180      -0.58587   0.31918    1.0000
  0.5483     9.16664   0.00000      -0.03321   0.00000    1.0000
  0.6470     5.39309   2.21226      -0.21044  -0.28136    1.0000
  0.6689    -0.83968  -1.79718      -0.52528   0.28518    1.0000
  0.8883    -2.43285  -0.82669      -0.60310  -0.00358    1.0000
  0.9431    -0.73464   1.64993      -0.47566  -0.25599    1.0000
  0.0000    12.00000   0.00000       0.00000   0.00000    0.0000
  0.0987     6.95945  -2.66981      -0.23676   0.33402    1.0000
  0.2742    10.40964  -0.00000      -0.02070  -0.00000    1.0000
  0.3729     6.08537  -2.42579      -0.22365   0.30681    1.0000
  0.3948    -0.98107   1.96180      -0.58586  -0.31917    1.0000
  0.5483     9.16664  -0.00000      -0.03321   0.00000    1.0000
  0.6470     5.39309  -2.21226      -0.21044   0.28135    1.0000
  0.6689    -0.83968   1.79718      -0.52527  -0.28517    1.0000
  0.8883    -2.43285   0.82669      -0.60309   0.00358    1.0000
  0.9431    -0.73464  -1.64993      -0.47564   0.25598    1.0000
  0.0000     0.54040   0.00000      -0.21993   0.00000    0.0000
  0.0987     0.21079  -0.00000      -0.04676   0.00000    1.0000
  0.2742     0.41683  -0.00000      -0.12655   0.00000    1.0000
  0.3729     0.19264  -0.00000      -0.04345   0.00000    1.0000
  0.3948    -0.19763   0.00000       0.10012  -0.00000    1.0000
  0.5483     0.38043  -0.00000      -0.11685   0.00000    1.0000
  0.6470     0.17667  -0.00000      -0.04080   0.00000    1.0000
  0.6689    -0.17927   0.00000       0.09136  -0.00000    1.0000
  0.8883    -0.26275  -0.00000       0.11955  -0.00000    1.0000
  0.9431    -0.16310  -0.00000       0.08343   0.00000    1.0000
  0.0000     0.00000   0.00000       0.00000   0.00000    0.0000
  0.0987     0.00000   0.00000       0.00000   0.00000    1.0000
  0.2742     0.00000   0.00000       0.00000   0.00000    1.0000
  0.3729     0.00000   0.00000       0.00000   0.00000    1.0000
  0.3948     0.00000   0.00000       0.00000   0.00000    1.0000
  0.5483     0.00000   0.00000       0.00000   0.00000    1.0000
  0.6470     0.00000   0.00000       0.00000   0.00000    1.0000
  0.6689     0.00000   0.00000       0.00000   0.00000    1.0000
  0.8883     0.00000   0.00000       0.00000   0.00000    1.0000
  0.9431     0.00000   0.00000       0.00000   0.00000    1.0000
   scf:    8        0.000000    -2322.574537    -2322.574540  0.347203 -3.819828  2.759715
     spin moment: {S} , |S| = {    0.64095    0.00000    0.00000 }     0.64095
 Max |\Delta rho(G)|:     0.402192
      G2      rho_in(G) (R, C)      Diff_rho(G) (R, C)   damping
  0.0000    12.00000   0.00000       0.00000   0.00000    0.0000
  0.0987     6.95204   2.66863       0.11344   0.21827    1.0000
  0.2742    10.40294  -0.00000      -0.01171  -0.00000    1.0000
  0.3729     6.07481   2.42403       0.09672   0.19209    1.0000
  0.3948    -0.99618  -1.94888       0.33401  -0.11816    1.0000
  0.5483     9.15595   0.00000      -0.01836   0.00000    1.0000
  0.6470     5.38074   2.21029       0.08306   0.17045    1.0000
  0.6689    -0.85256  -1.78646       0.30489  -0.10968    1.0000
  0.8883    -2.45004  -0.84369       0.37940  -0.13346    1.0000
  0.9431    -0.74604   1.64098       0.27656   0.10147    1.0000
  0.0000    12.00000   0.00000       0.00000   0.00000    0.0000
  0.0987     6.95204  -2.66863       0.11342  -0.21824    1.0000
  0.2742    10.40294  -0.00000      -0.01171   0.00000    1.0000
  0.3729     6.07481  -2.42403       0.09670  -0.19206    1.0000
  0.3948    -0.99618   1.94888       0.33397   0.11814    1.0000
  0.5483     9.15595  -0.00000      -0.01836   0.00000    1.0000
  0.6470     5.38074  -2.21030       0.08304  -0.17042    1.0000
  0.6689    -0.85256   1.78646       0.30486   0.10966    1.0000
  0.8883    -2.45004   0.84369       0.37936   0.13345    1.0000
  0.9431    -0.74604  -1.64098       0.27653  -0.10145    1.0000
  0.0000     0.48542   0.00000      -0.09789   0.00000    0.0000
  0.0987     0.20429   0.00000      -0.01816  -0.00000    1.0000
  0.2742     0.40096  -0.00000      -0.04997  -0.00000    1.0000
  0.3729     0.18654   0.00000      -0.01718  -0.00000    1.0000
  0.3948    -0.18738  -0.00000       0.03541   0.00000    1.0000
  0.5483     0.36558  -0.00000      -0.04687   0.00000    1.0000
  0.6470     0.17086   0.00000      -0.01652  -0.00000    1.0000
  0.6689    -0.16981  -0.00000       0.03278   0.00000    1.0000
  0.8883    -0.25060  -0.00000       0.03845   0.00000    1.0000
  0.9431    -0.15440   0.00000       0.03038  -0.00000    1.0000
  0.0000     0.00000   0.00000       0.00000   0.00000    0.0000
  0.0987     0.00000   0.00000       0.00000   0.00000    1.0000
  0.2742     0.00000   0.00000       0.00000   0.00000    1.0000
  0.3729     0.00000   0.00000       0.00000   0.00000    1.0000
  0.3948     0.00000   0.00000       0.00000   0.00000    1.0000
  0.5483     0.00000   0.00000       0.00000   0.00000    1.0000
  0.6470     0.00000   0.00000       0.00000   0.00000    1.0000
  0.6689     0.00000   0.00000       0.00000   0.00000    1.0000
  0.8883     0.00000   0.00000       0.00000   0.00000    1.0000
  0.9431     0.00000   0.00000       0.00000   0.00000    1.0000
   scf:    9        0.000000    -2326.137264    -2326.137264  0.200250 -4.056933  0.532245
     spin moment: {S} , |S| = {    0.77505    0.00000   -0.00000 }     0.77505
 Max |\Delta rho(G)|:     0.107332
      G2      rho_in(G) (R, C)      Diff_rho(G) (R, C)   damping
  0.0000    12.00000   0.00000       0.00000   0.00000    0.0000
  0.0987     6.95400   2.68841      -0.03214  -0.02322    1.0000
  0.2742    10.39886  -0.00000      -0.00852  -0.00000    1.0000
  0.3729     6.07415   2.44040      -0.03139  -0.02303    1.0000
  0.3948    -0.98474  -1.95260      -0.06003   0.06155    1.0000
  0.5483     9.14942   0.00000      -0.01349   0.00000    1.0000
  0.6470     5.37827   2.22405      -0.03046  -0.02194    1.0000
  0.6689    -0.84172  -1.79030      -0.04909   0.05206    1.0000
  0.8883    -2.43439  -0.86668      -0.05068  -0.05441    1.0000
  0.9431    -0.73637   1.64477      -0.04201  -0.04435    1.0000
  0.0000    12.00000   0.00000      -0.00000   0.00000    0.0000
  0.0987     6.95400  -2.68841      -0.03208   0.02308    1.0000
  0.2742    10.39886  -0.00000      -0.00852   0.00000    1.0000
  0.3729     6.07415  -2.44040      -0.03133   0.02290    1.0000
  0.3948    -0.98475   1.95260      -0.05986  -0.06145    1.0000
  0.5483     9.14942  -0.00000      -0.01349   0.00000    1.0000
  0.6470     5.37826  -2.22405      -0.03041   0.02182    1.0000
  0.6689    -0.84173   1.79030      -0.04894  -0.05197    1.0000
  0.8883    -2.43440   0.86668      -0.05050   0.05446    1.0000
  0.9431    -0.73638  -1.64476      -0.04187   0.04426    1.0000
  0.0000     0.46094   0.00000      -0.10733   0.00000    0.0000
  0.0987     0.19650  -0.00000      -0.01493   0.00000    1.0000
  0.2742     0.38292  -0.00000      -0.06270  -0.00000    1.0000
  0.3729     0.17926  -0.00000      -0.01425   0.00000    1.0000
  0.3948    -0.17723   0.00000       0.07013  -0.00000    1.0000
  0.5483     0.34877  -0.00000      -0.05808   0.00000    1.0000
  0.6470     0.16399  -0.00000      -0.01378   0.00000    1.0000
  0.6689    -0.16042   0.00000       0.06379  -0.00000    1.0000
  0.8883    -0.23908   0.00000       0.08021  -0.00000    1.0000
  0.9431    -0.14571  -0.00000       0.05812   0.00000    1.0000
  0.0000     0.00000   0.00000       0.00000   0.00000    0.0000
  0.0987     0.00000   0.00000       0.00000   0.00000    1.0000
  0.2742     0.00000   0.00000       0.00000   0.00000    1.0000
  0.3729     0.00000   0.00000       0.00000   0.00000    1.0000
  0.3948     0.00000   0.00000       0.00000   0.00000    1.0000
  0.5483     0.00000   0.00000       0.00000   0.00000    1.0000
  0.6470     0.00000   0.00000       0.00000   0.00000    1.0000
  0.6689     0.00000   0.00000       0.00000   0.00000    1.0000
  0.8883     0.00000   0.00000       0.00000   0.00000    1.0000
  0.9431     0.00000   0.00000       0.00000   0.00000    1.0000
   scf:   10        0.000000    -2327.643628    -2327.643631  0.096620 -4.155061  0.258513
     spin moment: {S} , |S| = {    0.70722    0.00000    0.00000 }     0.70722
 Max |\Delta rho(G)|:     0.094803
      G2      rho_in(G) (R, C)      Diff_rho(G) (R, C)   damping
  0.0000    12.00000   0.00000      -0.00002   0.00000    0.0000
  0.0987     6.95035   2.70998      -0.02122  -0.01666    1.0000
  0.2742    10.39082  -0.00000       0.00024   0.00000    1.0000
  0.3729     6.06705   2.45821      -0.01671  -0.01535    1.0000
  0.3948    -0.98226  -1.94274      -0.04519   0.03568    1.0000
  0.5483     9.13661   0.00000       0.00053  -0.00000    1.0000
  0.6470     5.36895   2.23920      -0.01343  -0.01371    1.0000
  0.6689    -0.83681  -1.78343      -0.03687   0.02983    1.0000
  0.8883    -2.42770  -0.90969      -0.04200  -0.02173    1.0000
  0.9431    -0.73074   1.64014      -0.03080  -0.02502    1.0000
  0.0000    12.00000   0.00000       0.00002   0.00000    0.0000
  0.0987     6.95038  -2.71004      -0.02215   0.01875    1.0000
  0.2742    10.39082  -0.00000       0.00026   0.00000    1.0000
  0.3729     6.06708  -2.45827      -0.01755   0.01723    1.0000
  0.3948    -0.98218   1.94279      -0.04773  -0.03717    1.0000
  0.5483     9.13661  -0.00000       0.00054   0.00000    1.0000
  0.6470     5.36897  -2.23925      -0.01420   0.01541    1.0000
  0.6689    -0.83674   1.78347      -0.03917  -0.03119    1.0000
  0.8883    -2.42761   0.90971      -0.04476   0.02107    1.0000
  0.9431    -0.73067  -1.64018      -0.03289   0.02627    1.0000
  0.0000     0.43411   0.00000      -0.09480   0.00000    0.0000
  0.0987     0.18550   0.00000      -0.00115  -0.00005    1.0000
  0.2742     0.34583  -0.00000      -0.03880   0.00000    1.0000
  0.3729     0.16882   0.00000      -0.00149  -0.00004    1.0000
  0.3948    -0.14227  -0.00000       0.06621   0.00004    1.0000
  0.5483     0.31425  -0.00000      -0.03573   0.00000    1.0000
  0.6470     0.15393   0.00000      -0.00180  -0.00004    1.0000
  0.6689    -0.12850  -0.00000       0.05991   0.00004    1.0000
  0.8883    -0.19935  -0.00000       0.07530   0.00001    1.0000
  0.9431    -0.11653   0.00000       0.05436  -0.00003    1.0000
  0.0000     0.00000   0.00000       0.00000   0.00000    0.0000
  0.0987     0.00000   0.00000       0.00000   0.00000    1.0000
  0.2742     0.00000   0.00000       0.00000   0.00000    1.0000
  0.3729     0.00000   0.00000       0.00000   0.00000    1.0000
  0.3948     0.00000   0.00000       0.00000   0.00000    1.0000
  0.5483     0.00000   0.00000       0.00000   0.00000    1.0000
  0.6470     0.00000   0.00000       0.00000   0.00000    1.0000
  0.6689     0.00000   0.00000       0.00000   0.00000    1.0000
  0.8883     0.00000   0.00000       0.00000   0.00000    1.0000
  0.9431     0.00000   0.00000       0.00000   0.00000    1.0000
   scf:   11        0.000000    -2327.677762    -2327.677901  0.010622 -4.328253  0.320975
     spin moment: {S} , |S| = {    0.67862    0.00000   -0.00004 }     0.67862
 Max |\Delta rho(G)|:     0.076196
      G2      rho_in(G) (R, C)      Diff_rho(G) (R, C)   damping
  0.0000    12.00000   0.00000       0.00028   0.00000    0.0000
  0.0987     6.94783   2.71773      -0.00754  -0.00460    1.0000
  0.2742    10.38910  -0.00000       0.00251   0.00000    1.0000
  0.3729     6.06461   2.46476      -0.00410  -0.00409    1.0000
  0.3948    -0.98348  -1.93634      -0.01579   0.01511    1.0000
  0.5483     9.13392   0.00000       0.00394  -0.00000    1.0000
  0.6470     5.36658   2.24499      -0.00176  -0.00338    1.0000
  0.6689    -0.83617  -1.77881      -0.01208   0.01227    1.0000
  0.8883    -2.42674  -0.92721      -0.01389  -0.00993    1.0000
  0.9431    -0.72911   1.63691      -0.00935  -0.00994    1.0000
  0.0000    12.00001   0.00000      -0.00028   0.00000    0.0000
  0.0987     6.94755  -2.71710       0.00088  -0.01478    1.0000
  0.2742    10.38910  -0.00000       0.00209   0.00000    1.0000
  0.3729     6.06436  -2.46419       0.00355  -0.01332    1.0000
  0.3948    -0.98425   1.93589       0.00759  -0.00132    1.0000
  0.5483     9.13392  -0.00000       0.00364   0.00000    1.0000
  0.6470     5.36635  -2.24448       0.00522  -0.01235    1.0000
  0.6689    -0.83687   1.77840       0.00908   0.00033    1.0000
  0.8883    -2.42758   0.92701       0.01148   0.01600    1.0000
  0.9431    -0.72975  -1.63654       0.00985  -0.00159    1.0000
  0.0000     0.41041   0.00000      -0.07620   0.00000    0.0000
  0.0987     0.18316  -0.00001       0.00617   0.00036    1.0000
  0.2742     0.32699  -0.00000      -0.02477  -0.00000    1.0000
  0.3729     0.16646  -0.00001       0.00520   0.00032    1.0000
  0.3948    -0.11534   0.00001       0.06072  -0.00031    1.0000
  0.5483     0.29681  -0.00000      -0.02282   0.00000    1.0000
  0.6470     0.15153  -0.00001       0.00439   0.00028    1.0000
  0.6689    -0.10407   0.00001       0.05483  -0.00027    1.0000
  0.8883    -0.16882   0.00000       0.06801  -0.00003    1.0000
  0.9431    -0.09432  -0.00001       0.04967   0.00024    1.0000
  0.0000     0.00000   0.00000       0.00000   0.00000    0.0000
  0.0987     0.00000   0.00000       0.00000   0.00000    1.0000
  0.2742     0.00000   0.00000       0.00000   0.00000    1.0000
  0.3729     0.00000   0.00000       0.00000   0.00000    1.0000
  0.3948     0.00000   0.00000       0.00000   0.00000    1.0000
  0.5483     0.00000   0.00000       0.00000   0.00000    1.0000
  0.6470     0.00000   0.00000       0.00000   0.00000    1.0000
  0.6689     0.00000   0.00000       0.00000   0.00000    1.0000
  0.8883     0.00000   0.00000       0.00000   0.00000    1.0000
  0.9431     0.00000   0.00000       0.00000   0.00000    1.0000
   scf:   12        0.000000    -2327.702417    -2327.702858  0.010611 -4.380507  0.096781
     spin moment: {S} , |S| = {    0.66843    0.00000    0.00054 }     0.66843
 Max |\Delta rho(G)|:     0.098240
      G2      rho_in(G) (R, C)      Diff_rho(G) (R, C)   damping
  0.0000    12.00007   0.00000      -0.00201   0.00000    0.0000
  0.0987     6.94583   2.71713       0.02942   0.07324    1.0000
  0.2742    10.38947  -0.00000       0.00046   0.00000    1.0000
  0.3729     6.06333   2.46420       0.02887   0.06597    1.0000
  0.3948    -0.98752  -1.93245       0.08459  -0.04414    1.0000
  0.5483     9.13449   0.00000       0.00214  -0.00000    1.0000
  0.6470     5.36580   2.24453       0.02787   0.05997    1.0000
  0.6689    -0.83923  -1.77568       0.07809  -0.04143    1.0000
  0.8883    -2.43029  -0.93065       0.09351  -0.03011    1.0000
  0.9431    -0.73148   1.63440       0.07204   0.03886    1.0000
  0.0000    11.99994   0.00000       0.00201   0.00000    0.0000
  0.0987     6.94749  -2.72097      -0.02089   0.04411    1.0000
  0.2742    10.38938  -0.00000       0.00353   0.00000    1.0000
  0.3729     6.06484  -2.46764      -0.01687   0.03941    1.0000
  0.3948    -0.98290   1.93519      -0.05619  -0.03935    1.0000
  0.5483     9.13443  -0.00000       0.00444   0.00000    1.0000
  0.6470     5.36718  -2.24764      -0.01385   0.03526    1.0000
  0.6689    -0.83505   1.77818      -0.04930  -0.03484    1.0000
  0.8883    -2.42528   0.93185      -0.05934  -0.00658    1.0000
  0.9431    -0.72768  -1.63668      -0.04357   0.03095    1.0000
  0.0000     0.39136   0.00000      -0.05810   0.00000    0.0000
  0.0987     0.18430   0.00007       0.00970  -0.00181    1.0000
  0.2742     0.32012  -0.00000      -0.01882  -0.00000    1.0000
  0.3729     0.16738   0.00006       0.00839  -0.00159    1.0000
  0.3948    -0.10007  -0.00006       0.05918   0.00160    1.0000
  0.5483     0.29047  -0.00000      -0.01737   0.00000    1.0000
  0.6470     0.15228   0.00005       0.00730  -0.00141    1.0000
  0.6689    -0.09027  -0.00005       0.05336   0.00139    1.0000
  0.8883    -0.15170  -0.00001       0.06543   0.00007    1.0000
  0.9431    -0.08181   0.00005       0.04828  -0.00121    1.0000
  0.0000     0.00000   0.00000       0.00000   0.00000    0.0000
  0.0987     0.00000   0.00000       0.00000   0.00000    1.0000
  0.2742     0.00000   0.00000       0.00000   0.00000    1.0000
  0.3729     0.00000   0.00000       0.00000   0.00000    1.0000
  0.3948     0.00000   0.00000       0.00000   0.00000    1.0000
  0.5483     0.00000   0.00000       0.00000   0.00000    1.0000
  0.6470     0.00000   0.00000       0.00000   0.00000    1.0000
  0.6689     0.00000   0.00000       0.00000   0.00000    1.0000
  0.8883     0.00000   0.00000       0.00000   0.00000    1.0000
  0.9431     0.00000   0.00000       0.00000   0.00000    1.0000
   scf:   13        0.000000    -2327.638935    -2327.639463  0.021169 -4.388888  0.049388
     spin moment: {S} , |S| = {    0.66652    0.00000   -0.00389 }     0.66654
 Max |\Delta rho(G)|:     0.071586
      G2      rho_in(G) (R, C)      Diff_rho(G) (R, C)   damping
  0.0000    11.99956   0.00000       0.00053   0.00000    0.0000
  0.0987     6.94698   2.71931      -0.01404  -0.01454    1.0000
  0.2742    10.38970  -0.00000       0.00160   0.00000    1.0000
  0.3729     6.06458   2.46619      -0.01071  -0.01289    1.0000
  0.3948    -0.98440  -1.93411      -0.03435   0.02033    1.0000
  0.5483     9.13491   0.00000       0.00256  -0.00000    1.0000
  0.6470     5.36709   2.24637      -0.00828  -0.01126    1.0000
  0.6689    -0.83639  -1.77721      -0.02932   0.01720    1.0000
  0.8883    -2.42687  -0.93096      -0.03511  -0.00450    1.0000
  0.9431    -0.72886   1.63581      -0.02528  -0.01457    1.0000
  0.0000    12.00044   0.00000      -0.00053   0.00000    0.0000
  0.0987     6.94700  -2.71931      -0.01339   0.01264    1.0000
  0.2742    10.38971  -0.00000       0.00144   0.00000    1.0000
  0.3729     6.06460  -2.46619      -0.01011   0.01112    1.0000
  0.3948    -0.98438   1.93411      -0.03229  -0.01880    1.0000
  0.5483     9.13493  -0.00000       0.00243   0.00000    1.0000
  0.6470     5.36710  -2.24637      -0.00772   0.00962    1.0000
  0.6689    -0.83637   1.77721      -0.02743  -0.01580    1.0000
  0.8883    -2.42684   0.93096      -0.03285   0.00499    1.0000
  0.9431    -0.72885  -1.63581      -0.02355   0.01329    1.0000
  0.0000     0.37684   0.00000      -0.04434   0.00000    0.0000
  0.0987     0.18499   0.00001       0.01156   0.00001    1.0000
  0.2742     0.31997  -0.00000      -0.01936  -0.00000    1.0000
  0.3729     0.16800   0.00001       0.01003   0.00000    1.0000
  0.3948    -0.09794  -0.00001       0.06496  -0.00001    1.0000
  0.5483     0.29034  -0.00000      -0.01788   0.00000    1.0000
  0.6470     0.15283   0.00001       0.00873   0.00000    1.0000
  0.6689    -0.08836  -0.00001       0.05850  -0.00001    1.0000
  0.8883    -0.14935  -0.00000       0.07159   0.00001    1.0000
  0.9431    -0.08008   0.00001       0.05288   0.00001    1.0000
  0.0000     0.00000   0.00000       0.00000   0.00000    0.0000
  0.0987     0.00000   0.00000       0.00000   0.00000    1.0000
  0.2742     0.00000   0.00000       0.00000   0.00000    1.0000
  0.3729     0.00000   0.00000       0.00000   0.00000    1.0000
  0.3948     0.00000   0.00000       0.00000   0.00000    1.0000
  0.5483     0.00000   0.00000       0.00000   0.00000    1.0000
  0.6470     0.00000   0.00000       0.00000   0.00000    1.0000
  0.6689     0.00000   0.00000       0.00000   0.00000    1.0000
  0.8883     0.00000   0.00000       0.00000   0.00000    1.0000
  0.9431     0.00000   0.00000       0.00000   0.00000    1.0000
   scf:   14        0.000000    -2327.692593    -2327.693019  0.026137 -4.383735  0.041902
     spin moment: {S} , |S| = {    0.66499    0.00000    0.00018 }     0.66499
 Max |\Delta rho(G)|:     0.068072
      G2      rho_in(G) (R, C)      Diff_rho(G) (R, C)   damping
  0.0000    11.99970   0.00000       0.00046   0.00000    0.0000
  0.0987     6.94670   2.71905       0.00048   0.00794    1.0000
  0.2742    10.38974  -0.00000       0.00170   0.00000    1.0000
  0.3729     6.06437   2.46597       0.00235   0.00740    1.0000
  0.3948    -0.98509  -1.93371       0.00396   0.00245    1.0000
  0.5483     9.13498   0.00000       0.00270   0.00000    1.0000
  0.6470     5.36693   2.24618       0.00353   0.00709    1.0000
  0.6689    -0.83697  -1.77687       0.00524   0.00108    1.0000
  0.8883    -2.42756  -0.93107       0.00597  -0.01007    1.0000
  0.9431    -0.72936   1.63553       0.00599  -0.00000    1.0000
  0.0000    12.00031   0.00000      -0.00046   0.00000    0.0000
  0.0987     6.94664  -2.71888       0.00314  -0.01447    1.0000
  0.2742    10.38975  -0.00000       0.00144   0.00000    1.0000
  0.3729     6.06432  -2.46582       0.00478  -0.01331    1.0000
  0.3948    -0.98528   1.93360       0.01162   0.00231    1.0000
  0.5483     9.13499  -0.00000       0.00249   0.00000    1.0000
  0.6470     5.36688  -2.24604       0.00575  -0.01246    1.0000
  0.6689    -0.83714   1.77677       0.01218   0.00327    1.0000
  0.8883    -2.42777   0.93101       0.01431   0.01204    1.0000
  0.9431    -0.72952  -1.63543       0.01231  -0.00398    1.0000
  0.0000     0.36575   0.00000      -0.03229   0.00000    0.0000
  0.0987     0.18527   0.00001       0.01139   0.00008    1.0000
  0.2742     0.31953  -0.00000      -0.01804  -0.00000    1.0000
  0.3729     0.16825   0.00001       0.00987   0.00007    1.0000
  0.3948    -0.09641  -0.00001       0.06198  -0.00007    1.0000
  0.5483     0.28994  -0.00000      -0.01667   0.00000    1.0000
  0.6470     0.15305   0.00001       0.00859   0.00006    1.0000
  0.6689    -0.08698  -0.00000       0.05579  -0.00006    1.0000
  0.8883    -0.14767  -0.00000       0.06807   0.00001    1.0000
  0.9431    -0.07884   0.00000       0.05041   0.00005    1.0000
  0.0000     0.00000   0.00000       0.00000   0.00000    0.0000
  0.0987     0.00000   0.00000       0.00000   0.00000    1.0000
  0.2742     0.00000   0.00000       0.00000   0.00000    1.0000
  0.3729     0.00000   0.00000       0.00000   0.00000    1.0000
  0.3948     0.00000   0.00000       0.00000   0.00000    1.0000
  0.5483     0.00000   0.00000       0.00000   0.00000    1.0000
  0.6470     0.00000   0.00000       0.00000   0.00000    1.0000
  0.6689     0.00000   0.00000       0.00000   0.00000    1.0000
  0.8883     0.00000   0.00000       0.00000   0.00000    1.0000
  0.9431     0.00000   0.00000       0.00000   0.00000    1.0000
   scf:   15        0.000000    -2327.703697    -2327.704117  0.010025 -4.384149  0.016109
     spin moment: {S} , |S| = {    0.66692    0.00000    0.00031 }     0.66692
SCF_NOT_CONV: SCF did not converge  in maximum number of steps.
Geom step, scf iteration, dDmax, dHmax:    0    15      0.010025     0.001184

Using DM_out to compute the final energy and forces
No. of atoms with KB's overlaping orbs in proc 0. Max # of overlaps:       3      18

siesta: E_KS(eV) =            -2327.7037

siesta: E_KS - E_eggbox =     -2327.7037

siesta: Atomic forces (eV/Ang):
----------------------------------------
   Tot    0.000000    0.000000    0.000079
----------------------------------------
   Max    0.297751
   Res    0.135785    sqrt( Sum f_i^2 / 3N )
----------------------------------------
   Max    0.297751    constrained

Stress tensor Voigt[x,y,z,yz,xz,xy] (kbar):        8.51        8.51       -9.99       -0.00       -0.00        0.00
(Free)E + p*V (eV/cell)    -2328.3284
Target enthalpy (eV/cell)    -2327.7041

mulliken: Atomic and Orbital Populations:

Species: Fe_nc               

Atom      Orb        Charge      Spin       Svec
----------------------------------------------------------------
    1  1 4s         1.49361   0.09911      0.002   0.000   0.099
    1  2 3dxy       1.24054   0.75353      0.073   0.000   0.750
    1  3 3dyz       1.36390   0.51842      0.025   0.000   0.518
    1  4 3dz2       1.37659   0.49850      0.025   0.000   0.498
    1  5 3dxz       1.36390   0.51842      0.025   0.000   0.518
    1  6 3dx2-y2    1.24020   0.75388      0.073   0.000   0.750
    1     Total     8.07875   3.14088      0.224   0.000   3.133

    2  1 4s         1.01435   0.00010      0.000   0.000  -0.000
    2  2 3dxy       1.51772   0.09143      0.091   0.000  -0.001
    2  3 3dyz       1.27096   0.01194      0.012   0.000  -0.001
    2  4 3dz2       1.24295   0.01285      0.013   0.000  -0.001
    2  5 3dxz       1.27096   0.01194      0.012   0.000  -0.001
    2  6 3dx2-y2    1.51832   0.09145      0.091   0.000  -0.001
    2     Total     7.83526   0.21969      0.220   0.000  -0.005

    3  1 4s         1.49382   0.09906      0.002   0.000  -0.099
    3  2 3dxy       1.24223   0.75192      0.073   0.000  -0.748
    3  3 3dyz       1.36514   0.51779      0.025   0.000  -0.517
    3  4 3dz2       1.37774   0.49789      0.025   0.000  -0.497
    3  5 3dxz       1.36514   0.51779      0.025   0.000  -0.517
    3  6 3dx2-y2    1.24194   0.75222      0.073   0.000  -0.749
    3     Total     8.08599   3.13569      0.224   0.000  -3.128

----------------------------------------------------------------
Total              24.00000   0.66692      0.667   0.000   0.000


Mulliken Atomic Populations:
Atom #   charge [q] valence [e]           S      Sx [e]      Sy [e]      Sz [e]  Species
     1    -0.078746    8.078746    3.140880    0.223743    0.000000    3.132901  Fe_nc
     2     0.164735    7.835265    0.219688    0.219634    0.000000   -0.004872  Fe_nc
     3    -0.085989    8.085989    3.135693    0.223548    0.000000   -3.127714  Fe_nc
-------------------------------------------------------------------------------
 Total     0.000000                0.666925    0.666925    0.000000    0.000314

siesta: Program's energy decomposition (eV):
siesta: Ebs     =      -152.950239
siesta: Eions   =      2102.576618
siesta: Ena     =        92.089899
siesta: Ekin    =      2336.960999
siesta: Enl     =     -1480.246843
siesta: Eso     =         0.000000
siesta: Edftu   =         0.000000
siesta: DEna    =       -33.473966
siesta: DUscf   =         3.965674
siesta: DUext   =         0.000000
siesta: Ex      =     -1049.970156
siesta: Ec      =       -94.452686
siesta: Exc     =     -1144.422842
siesta: EbV     =         0.000000
siesta: eta*DQ  =         0.000000
siesta: Emadel  =         0.000000
siesta: Emeta   =         0.000000
siesta: Emolmec =         0.000000
siesta: Ekinion =         0.000000
siesta: Eharris =         0.000000
siesta: Etot    =     -2327.703697
siesta: FreeEng =     -2327.704117

siesta: Final energy (eV):
siesta:  Band Struct. =    -152.950239
siesta:       Kinetic =    2336.960999
siesta:       Hartree =    1395.337118
siesta:         Edftu =       0.000000
siesta:       Eso     =       0.000000
siesta:    Ext. field =       0.000000
siesta:         Exch. =   -1049.970156
siesta:         Corr. =     -94.452686
siesta:     Bulk bias =       0.000000
siesta:   Exch.-corr. =   -1144.422842
siesta:  Ion-electron =   -4723.902123
siesta:       Ion-ion =    -191.676849
siesta:       Ekinion =       0.000000
siesta: D3 dispersion =       0.000000
siesta:         Total =   -2327.703697
siesta:         Fermi =      -4.384149

siesta: Atomic forces (eV/Ang):
siesta:      1    0.000000    0.000000    0.277232
siesta:      2    0.000000   -0.000000    0.020598
siesta:      3   -0.000000   -0.000000   -0.297751
siesta: ----------------------------------------
siesta:    Tot    0.000000    0.000000    0.000079

siesta: Stress tensor (static) (eV/Ang**3):
siesta:     0.005311    0.000000   -0.000000
siesta:     0.000000    0.005311   -0.000000
siesta:    -0.000000   -0.000000   -0.006233

siesta: Cell volume =        426.771969 Ang**3

siesta: Pressure (static):
siesta:                Solid            Molecule  Units
siesta:          -0.00001593         -0.00002536  Ry/Bohr**3
siesta:          -0.00146270         -0.00232870  eV/Ang**3
siesta:          -2.34351127         -3.73099561  kBar
(Free)E+ p_basis*V_orbitals  =       -2326.555035
(Free)Eharris+ p_basis*V_orbitals  =           1.148661

mulliken: Atomic and Orbital Populations:

Species: Fe_nc               

Atom      Orb        Charge      Spin       Svec
----------------------------------------------------------------
    1  1 4s         1.49361   0.09911      0.002   0.000   0.099
    1  2 3dxy       1.24054   0.75353      0.073   0.000   0.750
    1  3 3dyz       1.36390   0.51842      0.025   0.000   0.518
    1  4 3dz2       1.37659   0.49850      0.025   0.000   0.498
    1  5 3dxz       1.36390   0.51842      0.025   0.000   0.518
    1  6 3dx2-y2    1.24020   0.75388      0.073   0.000   0.750
    1     Total     8.07875   3.14088      0.224   0.000   3.133

    2  1 4s         1.01435   0.00010      0.000   0.000  -0.000
    2  2 3dxy       1.51772   0.09143      0.091   0.000  -0.001
    2  3 3dyz       1.27096   0.01194      0.012   0.000  -0.001
    2  4 3dz2       1.24295   0.01285      0.013   0.000  -0.001
    2  5 3dxz       1.27096   0.01194      0.012   0.000  -0.001
    2  6 3dx2-y2    1.51832   0.09145      0.091   0.000  -0.001
    2     Total     7.83526   0.21969      0.220   0.000  -0.005

    3  1 4s         1.49382   0.09906      0.002   0.000  -0.099
    3  2 3dxy       1.24223   0.75192      0.073   0.000  -0.748
    3  3 3dyz       1.36514   0.51779      0.025   0.000  -0.517
    3  4 3dz2       1.37774   0.49789      0.025   0.000  -0.497
    3  5 3dxz       1.36514   0.51779      0.025   0.000  -0.517
    3  6 3dx2-y2    1.24194   0.75222      0.073   0.000  -0.749
    3     Total     8.08599   3.13569      0.224   0.000  -3.128

----------------------------------------------------------------
Total              24.00000   0.66692      0.667   0.000   0.000


Mulliken Atomic Populations:
Atom #   charge [q] valence [e]           S      Sx [e]      Sy [e]      Sz [e]  Species
     1    -0.078746    8.078746    3.140880    0.223743    0.000000    3.132901  Fe_nc
     2     0.164735    7.835265    0.219688    0.219634    0.000000   -0.004872  Fe_nc
     3    -0.085989    8.085989    3.135693    0.223548    0.000000   -3.127714  Fe_nc
-------------------------------------------------------------------------------
 Total     0.000000                0.666925    0.666925    0.000000    0.000314

cite: Please see "chargemix.bib" for an exhaustive BiBTeX file.
cite: Please clearly indicate Siesta version in published work: 5.2.0-17-gad84d481e
cite: This calculation has made use of the following articles
cite: which are encouraged to be cited in a published work.
        Primary SIESTA paper
          DOI: www.doi.org/10.1088/0953-8984/14/11/302


timer: Elapsed wall time (sec) =       2.262
timer: CPU execution times (sec):

Routine            Calls   Time/call    Tot.time        %
siesta                 1       2.262       2.262   100.00
Setup                  1       0.036       0.036     1.57
bands                  1       0.000       0.000     0.00
KSV_init               1       0.000       0.000     0.00
IterGeom               1       2.226       2.226    98.40
geom_init              1       0.192       0.192     8.49
state_init             1       0.014       0.014     0.60
hsparse                1       0.000       0.000     0.00
overlap                1       0.013       0.013     0.59
Setup_H0               1       0.178       0.178     7.89
naefs                  2       0.000       0.000     0.00
dnaefs                 2       0.000       0.000     0.00
MolMec                 2       0.000       0.000     0.00
kinefsm                2       0.006       0.012     0.54
nlefsm                 2       0.040       0.080     3.53
DHSCF_Init             1       0.087       0.087     3.83
DHSCF1                 1       0.010       0.010     0.45
InitMesh               1       0.010       0.010     0.44
INITMESH               1       0.000       0.000     0.00
DHSCF2                 1       0.076       0.076     3.38
REMESH                 1       0.004       0.004     0.17
REORD                152       0.000       0.025     1.09
PHION                  1       0.025       0.025     1.11
COMM_BSC             386       0.000       0.052     2.30
POISON                32       0.005       0.171     7.57
fft                  244       0.002       0.480    21.20
IterSCF               15       0.127       1.907    84.28
setup_H               15       0.066       0.983    43.46
DHSCF                 31       0.060       1.853    81.92
DHSCF3                31       0.058       1.788    79.03
rhoofd                17       0.005       0.093     4.10
rhofft                45       0.010       0.440    19.47
XC                    31       0.027       0.844    37.32
GXC-CellXC            31       0.024       0.747    33.03
gridxc@cellXC         31       0.024       0.747    33.02
vmat                  16       0.005       0.081     3.57
compute_dm            15       0.000       0.005     0.24
diagon                15       0.000       0.005     0.24
cdiag                 15       0.000       0.004     0.18
cdiag1                15       0.000       0.001     0.03
cdiag2                15       0.000       0.001     0.02
cdiag3                15       0.000       0.002     0.10
cdiag4                15       0.000       0.000     0.02
PostSCF                1       0.127       0.127     5.60
FINAL_HF               1       0.127       0.127     5.60
DHSCF4                 1       0.066       0.066     2.90
dfscf                  1       0.048       0.048     2.13
overfsm                1       0.000       0.000     0.01
state_analysis         1       0.000       0.000     0.01
siesta_move            1       0.000       0.000     0.00
Analysis               1       0.000       0.000     0.01
optical                1       0.000       0.000     0.00
  

>> End of run:  17-JAN-2025  13:14:11
Job completed
