Executable      : /home/fnpedron/Siesta/siesta-dev/_build_serial/Src/siesta
Version         : 5.2.0-17-gad84d481e
Architecture    : x86_64
Compiler version: GNU-11.4.0
Compiler flags  : -fallow-argument-mismatch -O3 -march=native
Environment variables: 
  SIESTA_PS_PATH: /home/fnpedron/Siesta/siesta-dev/Tests/Pseudos
Parallelisations: none
NetCDF support
NetCDF-4 support
Lua support
DFT-D3 support

Runtime information:
* Directory : /home/fnpedron/Siesta/siesta-dev/_build_serial/Tests/04.SCFMixing/fullmix/work
* Running in serial mode.
>> Start of run:  17-JAN-2025  13:13:57

                           *********************** 
                           *  WELCOME TO SIESTA  * 
                           *********************** 

 NOTE: Siesta V5 introduces some new defaults for basis-set generation
 NOTE: which might lead to slightly different numerical results.
 NOTE: Please see the manual for full details and compatibility measures.


reinit: Reading from file ../../fullmix.fdf

reinit: -----------------------------------------------------------------------
reinit: System Name: Linear Fe3 cluster.
reinit: -----------------------------------------------------------------------
reinit: System Label: fullmix
reinit: -----------------------------------------------------------------------

NOTE on units for spin output: 
{S} is the spin magnetic moment, in units of the Bohr magneton,
assuming a g-factor for the electron spin of exactly 2.
The spin magnetic moment is then numerically equal to the charge inbalance,
in units of electrons, between the spin-up and -down channels.


initatom: Reading input for the pseudopotentials and atomic orbitals ----------
Species number:   1 Atomic number:   26 Label: Fe_nc

Ground state valence configuration (from tables):   4s02  4p00  3d06  4f00

---- Processing specs for species: Fe_nc
Reading pseudopotential information in formatted form from:
  /home/fnpedron/Siesta/siesta-dev/Tests/Pseudos/Fe_nc.psf

---- Pseudopotential check for Fe

Pseudized shells:
4s( 1.00) rc: 2.00
4p( 0.00) rc: 2.00
3d( 7.00) rc: 2.00
4f( 0.00) rc: 2.00
Valence configuration for ps generation: (assumed as above)
For Fe_nc, standard SIESTA heuristics set lmxkb to 3
 (one more than the basis l, including polarization orbitals).
Use PS.lmax or PS.KBprojectors blocks to override.

<basis_specs>
===============================================================================
Fe_nc                Z=  26    Mass=  55.845        Charge= 0.17977+309
Lmxo=2 Lmxkb= 3    BasisType=split      Semic=F
L=0  Nsemic=0  Cnfigmx=4
          i=1  nzeta=1  polorb=0  (4s)
            splnorm:   0.15000    
               vcte:    40.000    
               rinn:  -0.90000    
               qcoe:    0.0000    
               qyuk:    0.0000    
               qwid:   0.10000E-01
                rcs:    0.0000    
            lambdas:    1.0000    
L=1  Nsemic=0  Cnfigmx=4
          i=1  nzeta=0  polorb=0  (4p)  (empty shell (??) )
L=2  Nsemic=0  Cnfigmx=3
          i=1  nzeta=1  polorb=0  (3d)
            splnorm:   0.15000    
               vcte:    40.000    
               rinn:  -0.90000    
               qcoe:    0.0000    
               qyuk:    0.0000    
               qwid:   0.10000E-01
                rcs:    0.0000    
            lambdas:    1.0000    
-------------------------------------------------------------------------------
L=0  Nkbl=1  erefs: 0.17977+309
L=1  Nkbl=1  erefs: 0.17977+309
L=2  Nkbl=1  erefs: 0.17977+309
L=3  Nkbl=1  erefs: 0.17977+309
===============================================================================
</basis_specs>

Using PAO.SplitTailNorm
atom: Called for Fe_nc                 (Z =  26)
Maximum radius (at nrval) set to   50.00000 8518

read_vps: Pseudopotential generation method:
read_vps: ATM3      Troullier-Martins                       
Valence charge in pseudo generation:    8.00000

read_vps: Pseudopotential includes a core correction:
read_vps: Pseudo-core for xc-correction

xc_check: Exchange-correlation functional:
xc_check: Ceperley-Alder
V l=0 = -2*Zval/r beyond r=  2.8472
V l=1 = -2*Zval/r beyond r=  2.8472
V l=2 = -2*Zval/r beyond r=  2.8472
V l=3 = -2*Zval/r beyond r=  2.8472
All V_l potentials equal beyond r=  1.9894
This should be close to max(r_c) in ps generation
All pots = -2*Zval/r beyond r=  2.8472
Using large-core scheme (fit) for Vlocal

atom: Estimated core radius    2.84716
Fit of Vlocal with continuous 2nd derivative
Fitting vlocal at       1.9954
Choosing vlocal chloc cutoff:  5741  3.100644
qtot up to nchloc:    8.00000259
atom: Maximum radius for chlocal:    3.10064
atom: Maximum radius for r*vlocal+2*Zval:    3.10064

KBgen: Kleinman-Bylander projectors: 
GHOST: No ghost state for L =  0
   l= 0   rc=  1.991366   el= -0.319855   Ekb=  3.826230   kbcos=  0.253712
GHOST: No ghost state for L =  1
   l= 1   rc=  2.019582   el= -0.070931   Ekb=  3.335986   kbcos=  0.155791
GHOST: No ghost state for L =  2
   l= 2   rc=  1.989365   el= -0.307264   Ekb=-12.632066   kbcos= -0.657060
GHOST: No ghost state for L =  3
   l= 3   rc=  2.015527   el=  0.019538   Ekb= -1.701666   kbcos= -0.006384

KBgen: Total number of Kleinman-Bylander projectors:  16
atom: -------------------------------------------------------------------------

atom: SANKEY-TYPE ORBITALS:

SPLIT: Orbitals with angular momentum L= 0

SPLIT: Basis orbitals for state 4s

SPLIT: PAO cut-off radius determined from an
SPLIT: energy shift=  0.010000 Ry
Split based on tail norm

   izeta = 1
                 lambda =    1.000000
                     rc =    7.355669
                 energy =   -0.308198
                kinetic =    0.284874
    potential(screened) =   -0.593072
       potential(ionic) =   -5.763042

SPLIT: Orbitals with angular momentum L= 2

SPLIT: Basis orbitals for state 3d

SPLIT: PAO cut-off radius determined from an
SPLIT: energy shift=  0.010000 Ry
Split based on tail norm

   izeta = 1
                 lambda =    1.000000
                     rc =    4.584362
                 energy =   -0.296412
                kinetic =    8.773647
    potential(screened) =   -9.070058
       potential(ionic) =  -18.006145
atom: Total number of Sankey-type orbitals:  6

atm_pop: Valence configuration (for local Pseudopot. screening):
 4s( 2.00)                                                            
 4p( 0.00)                                                            
 3d( 6.00)                                                            
Vna: chval, zval:    8.00000   8.00000

Vna:  Cut-off radius for the neutral-atom potential:   7.355669
comcore: Pseudo-core radius Rcore=  3.839063

atom: _________________________________________________________________________

prinput: Basis input 

PAO.BasisType split     

%block ChemicalSpeciesLabel
    1   26 Fe_nc                   # Species index, atomic number, species label
%endblock ChemicalSpeciesLabel

%block PAO.Basis                 # Define Basis set
# WARNING: This information might be incomplete!
Fe_nc                 2                    # Species label, number of l-shells
 n=4   0   1                         # n, l, Nzeta 
   7.356   
   1.000   
 n=3   2   1                         # n, l, Nzeta 
   4.584   
   1.000   
%endblock PAO.Basis

prinput: ----------------------------------------------------------------------

Dumping basis to NetCDF file Fe_nc.ion.nc
coor:   Atomic-coordinates input format  =     Cartesian coordinates
coor:                                            (in Bohr units)

siesta: Atomic coordinates (Bohr) and species
siesta:      0.00000   0.00000   3.64400  1        1
siesta:      0.00000   0.00000   0.00000  1        2
siesta:      0.00000   0.00000  -3.64400  1        3

siesta: System type = bulk      

initatomlists: Number of atoms, orbitals, and projectors:      3    18    48

siesta: ******************** Simulation parameters ****************************
siesta:
siesta: The following are some of the parameters of the simulation.
siesta: A complete list of the parameters used, including default values,
siesta: can be found in file out.fdf
siesta:
redata: Spin configuration                          = non-collinear
redata: Number of spin components                   = 4
redata: Time-Reversal Symmetry                      = F
redata: Spin spiral                                 = F
redata: Long output                                 =   F
redata: Number of Atomic Species                    =        1
redata: Charge density info will appear in .RHO file
redata: Write Mulliken charges (when)               = geometry+end
redata: Write Mulliken Pop.                         = Atomic and Orbital charges
redata: Write Hirshfeld charges (when)              = none
redata: Write Voronoi charges (when)                = none
redata: Write spin charge (when)                    = scf
redata: Matel table size (NRTAB)                    =     1024
redata: Mesh Cutoff                                 =   150.0000 Ry
redata: Net charge of the system                    =     0.0000 |e|
redata: Min. number of SCF Iter                     =        0
redata: Max. number of SCF Iter                     =     1000
redata: SCF convergence failure will abort job
redata: SCF mix quantity                            = Hamiltonian
redata: Mix DM or H after convergence               =   F
redata: Recompute H after scf cycle                 =   F
redata: Mix DM in first SCF step                    =   T
redata: Write Pulay info on disk                    =   F
redata: New DM Occupancy tolerance                  = 0.000000000001
redata: No kicks to SCF
redata: DM Mixing Weight for Kicks                  =     0.5000
redata: Require Harris convergence for SCF          =   F
redata: Harris energy tolerance for SCF             =     0.000100 eV
redata: Require DM convergence for SCF              =   T
redata: DM tolerance for SCF                        =     0.000100
redata: Require EDM convergence for SCF             =   F
redata: EDM tolerance for SCF                       =     0.001000 eV
redata: Require H convergence for SCF               =   T
redata: Hamiltonian tolerance for SCF               =     0.001000 eV
redata: Require (free) Energy convergence for SCF   =   F
redata: (free) Energy tolerance for SCF             =     0.000100 eV
redata: Using DFT-D3 dispersion                     =   F
redata: Using Saved Data (generic)                  =   F
redata: Use continuation files for DM               =   T
redata: Neglect nonoverlap interactions             =   F
redata: Method of Calculation                       = Diagonalization
redata: Electronic Temperature                      =   300.0000 K
redata: Fix the spin of the system                  =   F
redata: Max. number of TDED Iter                    =        1
redata: Number of TDED substeps                     =        3
redata: Dynamics option                             = Single-point calculation
mix.SCF: Debug messages                          = T
mix.SCF: Linear mixing                           = linear-before
mix.SCF:    Mixing weight                        =     0.010000
mix.SCF:    Carried history steps                = 2
mix.SCF:    Number of mixing iterations          = 2
mix.SCF:    Following mixer                      = pulay
mix.SCF: Pulay mixing                            = pulay
mix.SCF:    Variant                              = stable
mix.SCF:    History steps                        = 2
mix.SCF:    Linear mixing weight                 =     0.010000
mix.SCF:    Mixing weight                        =     0.010000
mix.SCF:    SVD condition                        = 0.1000E-07
mix.SCF:    Restart steps                        = 2
mix.SCF:    Restart save steps                   = 1
mix.SCF:    Number of mixing iterations          = 10
mix.SCF:    Following mixer                      = kick
mix.SCF:    Following mixer upon convergence     = linear-after
mix.SCF: Broyden mixing                          = broyden
mix.SCF:    History steps                        = 2
mix.SCF:    Linear mixing weight                 =     0.010000
mix.SCF:    Inverse Jacobian weight              =     0.010000
mix.SCF:    Weight prime                         =     0.010000
mix.SCF:    SVD condition                        = 0.1000E-07
mix.SCF:    Restart steps                        = 2
mix.SCF:    Restart save steps                   = 1
mix.SCF:    Number of mixing iterations          = 10
mix.SCF:    Following mixer                      = kick
mix.SCF:    Following mixer upon convergence     = linear-after
mix.SCF: Linear mixing                           = linear-after
mix.SCF:    Mixing weight                        =     0.025000
mix.SCF: Linear mixing                           = kick
mix.SCF:    Mixing weight                        =     0.100000
mix.SCF:    Number of mixing iterations          = 1
mix.SCF:    Following mixer                      = broyden
mix.SCF: Spin-component mixing                   all
redata: Save all siesta data in one NC              =   F
redata: ***********************************************************************

%block SCF.Mixers
  linear-before
  pulay
  broyden
  linear-after
  kick
%endblock SCF.Mixers

%block SCF.Mixer.linear-before
  # Mixing method
  method linear

  # Mixing options
  weight 0.0100
  history 2

  # Continuation options
  iterations 2
  next pulay
%endblock SCF.Mixer.linear-before

%block SCF.Mixer.pulay
  # Mixing method
  method pulay
  variant stable

  # Mixing options
  weight 0.0100
  weight.linear 0.0100
  history 2
  restart 2
  restart.save 1

  # Continuation options
  iterations 10
  next kick
  next.conv linear-after
%endblock SCF.Mixer.pulay

%block SCF.Mixer.broyden
  # Mixing method
  method broyden

  # Mixing options
  weight 0.0100
  weight.linear 0.0100
  weight.prime 0.0100
  history 2
  restart 2
  restart.save 1

  # Continuation options
  iterations 10
  next kick
  next.conv linear-after
%endblock SCF.Mixer.broyden

%block SCF.Mixer.linear-after
  # Mixing method
  method linear

  # Mixing options
  weight 0.0250
%endblock SCF.Mixer.linear-after

%block SCF.Mixer.kick
  # Mixing method
  method linear

  # Mixing options
  weight 0.1000

  # Continuation options
  iterations 1
  next broyden
%endblock SCF.Mixer.kick

DM_history_depth set to one: no extrapolation allowed by default for geometry relaxation
Size of DM history Fstack: 1
Total number of electrons:    24.000000
Total ionic charge:    24.000000

siesta: k-grid: Number of k-points = 1
siesta: k-point is Gamma-only

diag: Algorithm                                     = D&C
diag: Used triangular part                          = Lower
diag: Absolute tolerance                            =  0.100E-15
diag: Orthogonalization factor                      =  0.100E-05
diag: Memory factor                                 =  1.0000


ts: **************************************************************
ts: Save H and S matrices                           =    F
ts: Save DM and EDM matrices                        =    F
ts: Only save the overlap matrix S                  =    F
ts: **************************************************************

************************ Begin: TS CHECKS AND WARNINGS ************************
************************ End: TS CHECKS AND WARNINGS **************************


                     ====================================
                        Single-point calculation
                     ====================================

outcell: Unit cell vectors (Ang):
        6.350127    0.000000    0.000000
        0.000000    6.350127    0.000000
        0.000000    0.000000   10.583544

outcell: Cell vector modules (Ang)   :    6.350127    6.350127   10.583544
outcell: Cell angles (23,13,12) (deg):     90.0000     90.0000     90.0000
outcell: Cell volume (Ang**3)        :    426.7720
Gamma-point calculation with interaction between periodic images
Some features might not work optimally:
e.g. DM initialization from atomic data
<dSpData1D:S at geom step 0
  <sparsity:sparsity for geom step 0
    nrows_g=18 nrows=18 sparsity=1.0000 nnzs=324, refcount: 7>
  <dData1D:(new from dSpData1D) n=324, refcount: 1>
refcount: 1>
new_DM -- step:     1
Initializing Density Matrix...

Attempting to read DM from file... Failed...
DM filled with atomic data (user-defined):
<dSpData2D:DM initialized from atoms
  <sparsity:sparsity for geom step 0
    nrows_g=18 nrows=18 sparsity=1.0000 nnzs=324, refcount: 8>
  <dData2D:DM n=324 m=4, refcount: 1>
refcount: 1>
No. of atoms with KB's overlaping orbs in proc 0. Max # of overlaps:       3      18

InitMesh: MESH = 48 x 48 x 80 = 184320
InitMesh: Mesh cutoff (required, used) =   150.000   157.914 Ry
New grid distribution [1]: sub = 2

stepf: Fermi-Dirac step function

siesta: Program's energy decomposition (eV):
siesta: Ebs     =       233.382953
siesta: Eions   =      2102.576618
siesta: Ena     =        92.089899
siesta: Ekin    =      2830.136509
siesta: Enl     =     -1830.436929
siesta: Eso     =         0.000000
siesta: Edftu   =         0.000000
siesta: DEna    =      -119.241795
siesta: DUscf   =        55.250613
siesta: DUext   =         0.000000
siesta: Ex      =     -1119.237696
siesta: Ec      =       -98.052083
siesta: Exc     =     -1217.289779
siesta: EbV     =         0.000000
siesta: eta*DQ  =         0.000000
siesta: Emadel  =         0.000000
siesta: Emeta   =         0.000000
siesta: Emolmec =         0.000000
siesta: Ekinion =         0.000000
siesta: Eharris =     -2221.519226
siesta: Etot    =     -2292.068099
siesta: FreeEng =     -2292.162148

        iscf     Eharris(eV)        E_KS(eV)     FreeEng(eV)     dDmax    Ef(eV) dHmax(eV)
   scf:    1    -2221.519226    -2292.068099    -2292.162148  0.995856 -9.385094 33.781836
     spin moment: {S} , |S| = {    1.52849    0.00000   -0.00000 }     1.52849
mix (0): linear
mix (0): next%n_hist = 1 / 2
mix (0): alpha = 0.1000E-01
timer: Routine,Calls,Time,% = IterSCF        1       0.051  17.14
   scf:    2    -2298.521581    -2295.456760    -2295.547620  0.093184 -9.233018 31.112278
     spin moment: {S} , |S| = {    1.40962    0.00000    0.00000 }     1.40962
mix (0): linear
mix (0): next%n_hist = 1 / 2
mix (0): alpha = 0.1000E-01
mix (0): switching mixer --> pulay
   scf:    3    -2299.828097    -2297.728690    -2297.819971  0.067498 -9.074944 29.031723
     spin moment: {S} , |S| = {    1.35160    0.00000   -0.00000 }     1.35160
mix (0): Pulay
mix (0): n_hist = 2 / 2
mix (0): G =   0.010000, sum(alpha) = 0.1042E+02, alpha =  0.1042E+02
   scf:    4    -2258.699065    -2301.678716    -2301.680134  0.383914 -7.078384 18.866878
     spin moment: {S} , |S| = {    2.21016    0.00000    0.00000 }     2.21016
mix (0): Pulay
mix (0): n_hist = 2 / 2
mix (0): G =   0.010000, sum(alpha) = -.2693E+00, alpha =  -.2693E+00
mix: Pulay -- resetting history
mix (0): saved hist = 1
   scf:    5    -2313.216229    -2315.204373    -2315.263334  0.257516 -7.481130 15.058553
     spin moment: {S} , |S| = {    2.07950    0.00000    0.00000 }     2.07950
mix (0): Pulay
mix (0): n_hist = 2 / 2
mix (0): G =   0.010000, sum(alpha) = -.3268E+00, alpha =  -.3268E+00
   scf:    6    -2322.187928    -2319.190232    -2319.209393  0.102616 -7.262662 13.764599
     spin moment: {S} , |S| = {    1.76598    0.00000    0.00000 }     1.76598
mix (0): Pulay
mix (0): n_hist = 2 / 2
mix (0): G =   0.010000, sum(alpha) = 0.1932E+01, alpha =  0.1932E+01
mix: Pulay -- resetting history
mix (0): saved hist = 1
   scf:    7    -2320.502735    -2319.851335    -2319.857570  0.017996 -6.716927 12.822317
     spin moment: {S} , |S| = {    1.68731    0.00000   -0.00000 }     1.68731
mix (0): Pulay
mix (0): n_hist = 2 / 2
mix (0): G =   0.010000, sum(alpha) = 0.1057E+02, alpha =  0.1057E+02
   scf:    8    -2327.450319    -2327.540073    -2327.540300  0.616831 -1.034435  4.796061
     spin moment: {S} , |S| = {    1.28513    0.00000   -0.00000 }     1.28513
mix (0): Pulay
mix (0): n_hist = 2 / 2
mix (0): G =   0.010000, sum(alpha) = -.2719E+00, alpha =  -.2719E+00
mix: Pulay -- resetting history
mix (0): saved hist = 1
   scf:    9    -2327.772480    -2327.658291    -2327.658319  0.056924 -2.606644  2.798049
     spin moment: {S} , |S| = {    1.28798    0.00000   -0.00000 }     1.28798
mix (0): Pulay
mix (0): n_hist = 2 / 2
mix (0): G =   0.010000, sum(alpha) = 0.9880E+00, alpha =  0.9880E+00
   scf:   10    -2327.727955    -2327.694010    -2327.694108  0.042710 -4.232571  0.894994
     spin moment: {S} , |S| = {    1.33485    0.00000    0.00000 }     1.33485
mix (0): Pulay
mix (0): n_hist = 2 / 2
mix (0): G =   0.010000, sum(alpha) = 0.3367E-01, alpha =  0.3367E-01
mix: Pulay -- resetting history
mix (0): saved hist = 1
   scf:   11    -2327.707195    -2327.701299    -2327.701463  0.003032 -4.275596  0.755827
     spin moment: {S} , |S| = {    1.34433    0.00000    0.00000 }     1.34433
mix (0): Pulay
mix (0): n_hist = 2 / 2
mix (0): G =   0.010000, sum(alpha) = 0.1769E+01, alpha =  0.1769E+01
   scf:   12    -2327.709994    -2327.707712    -2327.708225  0.005792 -4.344876  0.503979
     spin moment: {S} , |S| = {    1.36261    0.00000    0.00000 }     1.36261
mix (0): Pulay
mix (0): n_hist = 2 / 2
mix (0): G =   0.010000, sum(alpha) = 0.3272E-01, alpha =  0.3272E-01
mix: Pulay -- resetting history
mix (0): saved hist = 1
mix (0): switching mixer --> kick
   scf:   13    -2327.709807    -2327.708762    -2327.709291  0.000543 -4.347218  0.495373
     spin moment: {S} , |S| = {    1.36386    0.00000   -0.00000 }     1.36386
mix (0): linear
mix (0): alpha = 0.1000E+00
mix (0): switching mixer --> broyden
   scf:   14    -2327.725139    -2327.717260    -2327.717754  0.005223 -4.348542  0.472479
     spin moment: {S} , |S| = {    1.37157    0.00000   -0.00000 }     1.37157
mix (0): Broyden
mix (0): Broyden (initial), alpha = 0.1000E-01
   scf:   15    -2327.718808    -2327.718051    -2327.718543  0.000664 -4.348759  0.457821
     spin moment: {S} , |S| = {    1.37327    0.00000   -0.00000 }     1.37327
mix (0): Broyden
mix (0): n_hist = 2 / 2
mix (0): weights =  0.7223E+02
mix (0): G =   0.010000, sum(coeff) = 0.7337E+01, coeff =  0.7337E+01
mix: Broyden -- resetting history
mix (0): saved hist = 1
   scf:   16    -2327.726647    -2327.722801    -2327.723278  0.004420 -4.350189  0.369010
     spin moment: {S} , |S| = {    1.38456    0.00000   -0.00000 }     1.38456
mix (0): Broyden
mix (0): n_hist = 2 / 2
mix (0): weights =  0.8169E+02
mix (0): G =   0.010000, sum(coeff) = 0.7072E+00, coeff =  0.7072E+00
   scf:   17    -2327.729561    -2327.726225    -2327.726688  0.002689 -4.350960  0.330259
     spin moment: {S} , |S| = {    1.39087    0.00000   -0.00000 }     1.39087
mix (0): Broyden
mix (0): n_hist = 2 / 2
mix (0): weights =  0.8639E+02
mix (0): G =   0.010000, sum(coeff) = 0.6675E+01, coeff =  0.6675E+01
mix: Broyden -- resetting history
mix (0): saved hist = 1
   scf:   18    -2327.747667    -2327.738678    -2327.739074  0.018761 -4.353634  0.151056
     spin moment: {S} , |S| = {    1.42813    0.00000   -0.00000 }     1.42813
mix (0): Broyden
mix (0): n_hist = 2 / 2
mix (0): weights =  0.1141E+03
mix (0): G =   0.010000, sum(coeff) = 0.3431E+00, coeff =  0.3431E+00
   scf:   19    -2327.739068    -2327.739125    -2327.739509  0.006786 -4.353362  0.128013
     spin moment: {S} , |S| = {    1.43815    0.00000   -0.00000 }     1.43815
mix (0): Broyden
mix (0): n_hist = 2 / 2
mix (0): weights =  0.1186E+03
mix (0): G =   0.010000, sum(coeff) = 0.3787E+00, coeff =  0.3787E+00
mix: Broyden -- resetting history
mix (0): saved hist = 1
   scf:   20    -2327.738597    -2327.738937    -2327.739317  0.002613 -4.353016  0.114138
     spin moment: {S} , |S| = {    1.44095    0.00000   -0.00000 }     1.44095
mix (0): Broyden
mix (0): n_hist = 2 / 2
mix (0): weights =  0.1214E+03
mix (0): G =   0.010000, sum(coeff) = -.2420E+00, coeff =  -.2420E+00
   scf:   21    -2327.739581    -2327.739264    -2327.739643  0.000726 -4.353028  0.121832
     spin moment: {S} , |S| = {    1.43965    0.00000   -0.00000 }     1.43965
mix (0): Broyden
mix (0): n_hist = 2 / 2
mix (0): weights =  0.1198E+03
mix (0): G =   0.010000, sum(coeff) = -.7746E+00, coeff =  -.7746E+00
mix: Broyden -- resetting history
mix (0): saved hist = 1
   scf:   22    -2327.739156    -2327.739212    -2327.739590  0.000462 -4.352957  0.128105
     spin moment: {S} , |S| = {    1.44019    0.00000   -0.00000 }     1.44019
mix (0): Broyden
mix (0): n_hist = 2 / 2
mix (0): weights =  0.1185E+03
mix (0): G =   0.010000, sum(coeff) = -.2360E+01, coeff =  -.2360E+01
   scf:   23    -2327.739776    -2327.739500    -2327.739878  0.001094 -4.353053  0.126802
     spin moment: {S} , |S| = {    1.43842    0.00000   -0.00000 }     1.43842
mix (0): Broyden
mix (0): n_hist = 2 / 2
mix (0): weights =  0.1188E+03
mix (0): G =   0.010000, sum(coeff) = -.4280E+00, coeff =  -.4280E+00
mix: Broyden -- resetting history
mix (0): saved hist = 1
mix (0): switching mixer --> kick
   scf:   24    -2327.739569    -2327.739537    -2327.739913  0.000428 -4.352969  0.133937
     spin moment: {S} , |S| = {    1.43892    0.00000   -0.00000 }     1.43892
mix (0): linear
mix (0): alpha = 0.1000E+00
mix (0): switching mixer --> broyden
   scf:   25    -2327.741569    -2327.740653    -2327.741017  0.002250 -4.352649  0.162202
     spin moment: {S} , |S| = {    1.43758    0.00000   -0.00000 }     1.43758
mix (0): Broyden
mix (0): n_hist = 2 / 2
mix (0): weights =  0.1120E+03
mix (0): G =   0.010000, sum(coeff) = -.1019E+01, coeff =  -.1019E+01
   scf:   26    -2327.738401    -2327.739621    -2327.739998  0.001937 -4.353013  0.133507
     spin moment: {S} , |S| = {    1.43816    0.00000   -0.00000 }     1.43816
mix (0): Broyden
mix (0): n_hist = 2 / 2
mix (0): weights =  0.1175E+03
mix (0): G =   0.010000, sum(coeff) = 0.1381E+00, coeff =  0.1381E+00
mix: Broyden -- resetting history
mix (0): saved hist = 1
   scf:   27    -2327.717522    -2327.731959    -2327.732354  0.004964 -4.354200  0.437215
     spin moment: {S} , |S| = {    1.45024    0.00000   -0.00000 }     1.45024
mix (0): Broyden
mix (0): n_hist = 2 / 2
mix (0): weights =  0.7428E+02
mix (0): G =   0.010000, sum(coeff) = -.8950E+00, coeff =  -.8950E+00
   scf:   28    -2327.741236    -2327.739691    -2327.740068  0.004877 -4.353059  0.116063
     spin moment: {S} , |S| = {    1.43879    0.00000   -0.00000 }     1.43879
mix (0): Broyden
mix (0): n_hist = 2 / 2
mix (0): weights =  0.1210E+03
mix (0): G =   0.010000, sum(coeff) = -.6035E-01, coeff =  -.6035E-01
mix: Broyden -- resetting history
mix (0): saved hist = 1
   scf:   29    -2327.739906    -2327.739799    -2327.740175  0.000132 -4.353051  0.114565
     spin moment: {S} , |S| = {    1.43886    0.00000   -0.00000 }     1.43886
mix (0): Broyden
mix (0): n_hist = 2 / 2
mix (0): weights =  0.1213E+03
mix (0): G =   0.010000, sum(coeff) = 0.6825E+02, coeff =  0.6825E+02
   scf:   30    -2327.745730    -2327.743462    -2327.743780  0.008755 -4.352419  0.048904
     spin moment: {S} , |S| = {    1.44297    0.00000   -0.00000 }     1.44297
mix (0): Broyden
mix (0): n_hist = 2 / 2
mix (0): weights =  0.1359E+03
mix (0): G =   0.010000, sum(coeff) = 0.4841E-01, coeff =  0.4841E-01
mix: Broyden -- resetting history
mix (0): saved hist = 1
   scf:   31    -2327.743483    -2327.743474    -2327.743789  0.000425 -4.352413  0.049321
     spin moment: {S} , |S| = {    1.44332    0.00000   -0.00000 }     1.44332
mix (0): Broyden
mix (0): n_hist = 2 / 2
mix (0): weights =  0.1358E+03
mix (0): G =   0.010000, sum(coeff) = 0.4188E+00, coeff =  0.4188E+00
   scf:   32    -2327.743503    -2327.743489    -2327.743803  0.000159 -4.352445  0.049633
     spin moment: {S} , |S| = {    1.44372    0.00000   -0.00000 }     1.44372
mix (0): Broyden
mix (0): n_hist = 2 / 2
mix (0): weights =  0.1357E+03
mix (0): G =   0.010000, sum(coeff) = 0.2452E+00, coeff =  0.2452E+00
mix: Broyden -- resetting history
mix (0): saved hist = 1
   scf:   33    -2327.743523    -2327.743506    -2327.743820  0.000057 -4.352490  0.049422
     spin moment: {S} , |S| = {    1.44413    0.00000   -0.00000 }     1.44413
mix (0): Broyden
mix (0): n_hist = 2 / 2
mix (0): weights =  0.1357E+03
mix (0): G =   0.010000, sum(coeff) = 0.3281E+01, coeff =  0.3281E+01
   scf:   34    -2327.743637    -2327.743572    -2327.743884  0.000229 -4.352681  0.047497
     spin moment: {S} , |S| = {    1.44583    0.00000   -0.00000 }     1.44583
mix (0): Broyden
mix (0): n_hist = 2 / 2
mix (0): weights =  0.1362E+03
mix (0): G =   0.010000, sum(coeff) = 0.2758E+01, coeff =  0.2758E+01
mix: Broyden -- resetting history
mix (0): saved hist = 1
mix (0): switching mixer --> kick
   scf:   35    -2327.743922    -2327.743744    -2327.744055  0.000651 -4.353247  0.039757
     spin moment: {S} , |S| = {    1.45097    0.00000   -0.00000 }     1.45097
mix (0): linear
mix (0): alpha = 0.1000E+00
mix (0): switching mixer --> broyden
   scf:   36    -2327.743829    -2327.743810    -2327.744122  0.000739 -4.353606  0.024780
     spin moment: {S} , |S| = {    1.45497    0.00000   -0.00000 }     1.45497
mix (0): Broyden
mix (0): n_hist = 2 / 2
mix (0): weights =  0.1419E+03
mix (0): G =   0.010000, sum(coeff) = -.3033E+00, coeff =  -.3033E+00
   scf:   37    -2327.743716    -2327.743767    -2327.744080  0.000343 -4.353336  0.032889
     spin moment: {S} , |S| = {    1.45231    0.00000   -0.00000 }     1.45231
mix (0): Broyden
mix (0): n_hist = 2 / 2
mix (0): weights =  0.1398E+03
mix (0): G =   0.010000, sum(coeff) = -.1228E+00, coeff =  -.1228E+00
mix: Broyden -- resetting history
mix (0): saved hist = 1
   scf:   38    -2327.741311    -2327.742909    -2327.743227  0.001667 -4.353793  0.128648
     spin moment: {S} , |S| = {    1.45605    0.00000   -0.00000 }     1.45605
mix (0): Broyden
mix (0): n_hist = 2 / 2
mix (0): weights =  0.1184E+03
mix (0): G =   0.010000, sum(coeff) = -.1020E+01, coeff =  -.1020E+01
   scf:   39    -2327.743849    -2327.743779    -2327.744092  0.001702 -4.353345  0.034472
     spin moment: {S} , |S| = {    1.45245    0.00000   -0.00000 }     1.45245
mix (0): Broyden
mix (0): n_hist = 2 / 2
mix (0): weights =  0.1394E+03
mix (0): G =   0.010000, sum(coeff) = -.2051E-01, coeff =  -.2051E-01
mix: Broyden -- resetting history
mix (0): saved hist = 1
   scf:   40    -2327.743796    -2327.743788    -2327.744100  0.000040 -4.353372  0.034058
     spin moment: {S} , |S| = {    1.45274    0.00000   -0.00000 }     1.45274
mix (0): Broyden
mix (0): n_hist = 2 / 2
mix (0): weights =  0.1395E+03
mix (0): G =   0.010000, sum(coeff) = 0.3834E+02, coeff =  0.3834E+02
   scf:   41    -2327.744292    -2327.744044    -2327.744358  0.001543 -4.354409  0.018355
     spin moment: {S} , |S| = {    1.46390    0.00000   -0.00000 }     1.46390
mix (0): Broyden
mix (0): n_hist = 2 / 2
mix (0): weights =  0.1435E+03
mix (0): G =   0.010000, sum(coeff) = 0.6138E+00, coeff =  0.6138E+00
mix: Broyden -- resetting history
mix (0): saved hist = 1
   scf:   42    -2327.744215    -2327.744131    -2327.744445  0.000945 -4.355031  0.012142
     spin moment: {S} , |S| = {    1.47092    0.00000   -0.00000 }     1.47092
mix (0): Broyden
mix (0): n_hist = 2 / 2
mix (0): weights =  0.1452E+03
mix (0): G =   0.010000, sum(coeff) = 0.3564E-01, coeff =  0.3564E-01
   scf:   43    -2327.744141    -2327.744136    -2327.744450  0.000036 -4.355046  0.012132
     spin moment: {S} , |S| = {    1.47138    0.00000   -0.00000 }     1.47138
mix (0): Broyden
mix (0): n_hist = 2 / 2
mix (0): weights =  0.1452E+03
mix (0): G =   0.010000, sum(coeff) = 0.1378E+02, coeff =  0.1378E+02
mix: Broyden -- resetting history
mix (0): saved hist = 1
   scf:   44    -2327.744272    -2327.744201    -2327.744514  0.000509 -4.355239  0.011948
     spin moment: {S} , |S| = {    1.47786    0.00000   -0.00000 }     1.47786
mix (0): Broyden
mix (0): n_hist = 2 / 2
mix (0): weights =  0.1452E+03
mix (0): G =   0.010000, sum(coeff) = 0.8969E+00, coeff =  0.8969E+00
   scf:   45    -2327.744304    -2327.744250    -2327.744562  0.000473 -4.355394  0.011766
     spin moment: {S} , |S| = {    1.48383    0.00000   -0.00000 }     1.48383
mix (0): Broyden
mix (0): n_hist = 2 / 2
mix (0): weights =  0.1453E+03
mix (0): G =   0.010000, sum(coeff) = 0.9270E-01, coeff =  0.9270E-01
mix: Broyden -- resetting history
mix (0): saved hist = 1
mix (0): switching mixer --> kick
   scf:   46    -2327.744263    -2327.744256    -2327.744568  0.000062 -4.355393  0.011607
     spin moment: {S} , |S| = {    1.48455    0.00000   -0.00000 }     1.48455
mix (0): linear
mix (0): alpha = 0.1000E+00
mix (0): switching mixer --> broyden
   scf:   47    -2327.744308    -2327.744282    -2327.744593  0.000180 -4.355246  0.009908
     spin moment: {S} , |S| = {    1.48627    0.00000   -0.00000 }     1.48627
mix (0): Broyden
mix (0): n_hist = 2 / 2
mix (0): weights =  0.1457E+03
mix (0): G =   0.010000, sum(coeff) = 0.4599E+01, coeff =  0.4599E+01
   scf:   48    -2327.744518    -2327.744394    -2327.744699  0.001125 -4.354558  0.005710
     spin moment: {S} , |S| = {    1.49772    0.00000   -0.00000 }     1.49772
mix (0): Broyden
mix (0): n_hist = 2 / 2
mix (0): weights =  0.1469E+03
mix (0): G =   0.010000, sum(coeff) = 0.4222E-01, coeff =  0.4222E-01
mix: Broyden -- resetting history
mix (0): saved hist = 1
   scf:   49    -2327.744403    -2327.744399    -2327.744704  0.000068 -4.354536  0.005654
     spin moment: {S} , |S| = {    1.49854    0.00000   -0.00000 }     1.49854
mix (0): Broyden
mix (0): n_hist = 2 / 2
mix (0): weights =  0.1469E+03
mix (0): G =   0.010000, sum(coeff) = 0.3029E+00, coeff =  0.3029E+00
   scf:   50    -2327.744403    -2327.744401    -2327.744706  0.000035 -4.354529  0.005625
     spin moment: {S} , |S| = {    1.49897    0.00000   -0.00000 }     1.49897
mix (0): Broyden
mix (0): n_hist = 2 / 2
mix (0): weights =  0.1469E+03
mix (0): G =   0.010000, sum(coeff) = 0.7325E+00, coeff =  0.7325E+00
mix: Broyden -- resetting history
mix (0): saved hist = 1
   scf:   51    -2327.744407    -2327.744404    -2327.744709  0.000039 -4.354523  0.005594
     spin moment: {S} , |S| = {    1.49945    0.00000   -0.00000 }     1.49945
mix (0): Broyden
mix (0): n_hist = 2 / 2
mix (0): weights =  0.1469E+03
mix (0): G =   0.010000, sum(coeff) = 0.1965E+01, coeff =  0.1965E+01
   scf:   52    -2327.744417    -2327.744410    -2327.744715  0.000091 -4.354510  0.005520
     spin moment: {S} , |S| = {    1.50058    0.00000   -0.00000 }     1.50058
mix (0): Broyden
mix (0): n_hist = 2 / 2
mix (0): weights =  0.1469E+03
mix (0): G =   0.010000, sum(coeff) = 0.4469E+01, coeff =  0.4469E+01
mix: Broyden -- resetting history
mix (0): saved hist = 1
   scf:   53    -2327.744469    -2327.744438    -2327.744744  0.000421 -4.354450  0.005183
     spin moment: {S} , |S| = {    1.50577    0.00000   -0.00000 }     1.50577
mix (0): Broyden
mix (0): n_hist = 2 / 2
mix (0): weights =  0.1470E+03
mix (0): G =   0.010000, sum(coeff) = 0.5007E+01, coeff =  0.5007E+01
   scf:   54    -2327.744745    -2327.744548    -2327.744855  0.002116 -4.354120  0.003481
     spin moment: {S} , |S| = {    1.53188    0.00000   -0.00000 }     1.53188
mix (0): Broyden
mix (0): n_hist = 2 / 2
mix (0): weights =  0.1475E+03
mix (0): G =   0.010000, sum(coeff) = 0.2261E+00, coeff =  0.2261E+00
mix: Broyden -- resetting history
mix (0): saved hist = 1
   scf:   55    -2327.744588    -2327.744566    -2327.744874  0.000486 -4.354042  0.003087
     spin moment: {S} , |S| = {    1.53790    0.00000   -0.00000 }     1.53790
mix (0): Broyden
mix (0): n_hist = 2 / 2
mix (0): weights =  0.1476E+03
mix (0): G =   0.010000, sum(coeff) = 0.8059E+00, coeff =  0.8059E+00
   scf:   56    -2327.744595    -2327.744579    -2327.744887  0.000398 -4.353983  0.002807
     spin moment: {S} , |S| = {    1.54287    0.00000   -0.00000 }     1.54287
mix (0): Broyden
mix (0): n_hist = 2 / 2
mix (0): weights =  0.1477E+03
mix (0): G =   0.010000, sum(coeff) = -.1538E+00, coeff =  -.1538E+00
mix: Broyden -- resetting history
mix (0): saved hist = 1
mix (0): switching mixer --> kick
   scf:   57    -2327.744575    -2327.744577    -2327.744886  0.000054 -4.353997  0.002805
     spin moment: {S} , |S| = {    1.54222    0.00000   -0.00000 }     1.54222
mix (0): linear
mix (0): alpha = 0.1000E+00
mix (0): switching mixer --> broyden
   scf:   58    -2327.744580    -2327.744579    -2327.744888  0.000071 -4.354039  0.003112
     spin moment: {S} , |S| = {    1.54330    0.00000   -0.00000 }     1.54330
mix (0): Broyden
mix (0): n_hist = 2 / 2
mix (0): weights =  0.1476E+03
mix (0): G =   0.010000, sum(coeff) = -.9659E+00, coeff =  -.9659E+00
   scf:   59    -2327.744579    -2327.744579    -2327.744888  0.000034 -4.353989  0.002870
     spin moment: {S} , |S| = {    1.54300    0.00000   -0.00000 }     1.54300
mix (0): Broyden
mix (0): n_hist = 2 / 2
mix (0): weights =  0.1476E+03
mix (0): G =   0.010000, sum(coeff) = 0.1557E+00, coeff =  0.1557E+00
mix: Broyden -- resetting history
mix (0): saved hist = 1
   scf:   60    -2327.744553    -2327.744570    -2327.744879  0.000167 -4.353949  0.013386
     spin moment: {S} , |S| = {    1.54271    0.00000   -0.00000 }     1.54271
mix (0): Broyden
mix (0): n_hist = 2 / 2
mix (0): weights =  0.1448E+03
mix (0): G =   0.010000, sum(coeff) = -.9590E+00, coeff =  -.9590E+00
   scf:   61    -2327.744579    -2327.744579    -2327.744888  0.000166 -4.353993  0.002788
     spin moment: {S} , |S| = {    1.54310    0.00000   -0.00000 }     1.54310
mix (0): Broyden
mix (0): n_hist = 2 / 2
mix (0): weights =  0.1477E+03
mix (0): G =   0.010000, sum(coeff) = -.2732E-01, coeff =  -.2732E-01
mix: Broyden -- resetting history
mix (0): saved hist = 1
   scf:   62    -2327.744579    -2327.744579    -2327.744888  0.000007 -4.353996  0.002764
     spin moment: {S} , |S| = {    1.54320    0.00000   -0.00000 }     1.54320
mix (0): Broyden
mix (0): n_hist = 2 / 2
mix (0): weights =  0.1477E+03
mix (0): G =   0.010000, sum(coeff) = 0.6176E+00, coeff =  0.6176E+00
   scf:   63    -2327.744580    -2327.744579    -2327.744888  0.000011 -4.354003  0.002790
     spin moment: {S} , |S| = {    1.54337    0.00000   -0.00000 }     1.54337
mix (0): Broyden
mix (0): n_hist = 2 / 2
mix (0): weights =  0.1477E+03
mix (0): G =   0.010000, sum(coeff) = -.4043E+00, coeff =  -.4043E+00
mix: Broyden -- resetting history
mix (0): saved hist = 1
   scf:   64    -2327.744580    -2327.744580    -2327.744889  0.000002 -4.354004  0.002804
     spin moment: {S} , |S| = {    1.54340    0.00000   -0.00000 }     1.54340
mix (0): Broyden
mix (0): n_hist = 2 / 2
mix (0): weights =  0.1477E+03
mix (0): G =   0.010000, sum(coeff) = -.3958E+00, coeff =  -.3958E+00
   scf:   65    -2327.744580    -2327.744580    -2327.744889  0.000006 -4.354007  0.002805
     spin moment: {S} , |S| = {    1.54349    0.00000   -0.00000 }     1.54349
mix (0): Broyden
mix (0): n_hist = 2 / 2
mix (0): weights =  0.1477E+03
mix (0): G =   0.010000, sum(coeff) = -.1778E+00, coeff =  -.1778E+00
mix: Broyden -- resetting history
mix (0): saved hist = 1
   scf:   66    -2327.744580    -2327.744580    -2327.744889  0.000006 -4.354011  0.002800
     spin moment: {S} , |S| = {    1.54358    0.00000   -0.00000 }     1.54358
mix (0): Broyden
mix (0): n_hist = 2 / 2
mix (0): weights =  0.1477E+03
mix (0): G =   0.010000, sum(coeff) = -.7143E-02, coeff =  -.7143E-02
   scf:   67    -2327.744580    -2327.744580    -2327.744889  0.000007 -4.354014  0.002786
     spin moment: {S} , |S| = {    1.54368    0.00000   -0.00000 }     1.54368
mix (0): Broyden
mix (0): n_hist = 2 / 2
mix (0): weights =  0.1477E+03
mix (0): G =   0.010000, sum(coeff) = 0.2241E+00, coeff =  0.2241E+00
mix: Broyden -- resetting history
mix (0): saved hist = 1
mix (0): switching mixer --> kick
   scf:   68    -2327.744580    -2327.744580    -2327.744889  0.000009 -4.354019  0.002763
     spin moment: {S} , |S| = {    1.54380    0.00000   -0.00000 }     1.54380
mix (0): linear
mix (0): alpha = 0.1000E+00
mix (0): switching mixer --> broyden
   scf:   69    -2327.744584    -2327.744582    -2327.744892  0.000070 -4.354054  0.002649
     spin moment: {S} , |S| = {    1.54480    0.00000   -0.00000 }     1.54480
mix (0): Broyden
mix (0): n_hist = 2 / 2
mix (0): weights =  0.1477E+03
mix (0): G =   0.010000, sum(coeff) = 0.3143E+01, coeff =  0.3143E+01
   scf:   70    -2327.744595    -2327.744588    -2327.744900  0.000254 -4.354177  0.002440
     spin moment: {S} , |S| = {    1.54839    0.00000   -0.00000 }     1.54839
mix (0): Broyden
mix (0): n_hist = 2 / 2
mix (0): weights =  0.1477E+03
mix (0): G =   0.010000, sum(coeff) = 0.1890E+01, coeff =  0.1890E+01
mix: Broyden -- resetting history
mix (0): saved hist = 1
   scf:   71    -2327.744600    -2327.744594    -2327.744910  0.000615 -4.354368  0.010782
     spin moment: {S} , |S| = {    1.55658    0.00000   -0.00000 }     1.55658
mix (0): Broyden
mix (0): n_hist = 2 / 2
mix (0): weights =  0.1455E+03
mix (0): G =   0.010000, sum(coeff) = -.9159E+00, coeff =  -.9159E+00
   scf:   72    -2327.744585    -2327.744589    -2327.744902  0.000557 -4.354196  0.002396
     spin moment: {S} , |S| = {    1.54918    0.00000   -0.00000 }     1.54918
mix (0): Broyden
mix (0): n_hist = 2 / 2
mix (0): weights =  0.1478E+03
mix (0): G =   0.010000, sum(coeff) = -.2226E-01, coeff =  -.2226E-01
mix: Broyden -- resetting history
mix (0): saved hist = 1
   scf:   73    -2327.744590    -2327.744590    -2327.744902  0.000018 -4.354202  0.002381
     spin moment: {S} , |S| = {    1.54943    0.00000   -0.00000 }     1.54943
mix (0): Broyden
mix (0): n_hist = 2 / 2
mix (0): weights =  0.1478E+03
mix (0): G =   0.010000, sum(coeff) = 0.7117E+00, coeff =  0.7117E+00
   scf:   74    -2327.744590    -2327.744590    -2327.744903  0.000019 -4.354208  0.002366
     spin moment: {S} , |S| = {    1.54971    0.00000   -0.00000 }     1.54971
mix (0): Broyden
mix (0): n_hist = 2 / 2
mix (0): weights =  0.1478E+03
mix (0): G =   0.010000, sum(coeff) = 0.1907E+00, coeff =  0.1907E+00
mix: Broyden -- resetting history
mix (0): saved hist = 1
   scf:   75    -2327.744590    -2327.744590    -2327.744903  0.000010 -4.354211  0.002358
     spin moment: {S} , |S| = {    1.54985    0.00000   -0.00000 }     1.54985
mix (0): Broyden
mix (0): n_hist = 2 / 2
mix (0): weights =  0.1478E+03
mix (0): G =   0.010000, sum(coeff) = -.9750E-01, coeff =  -.9750E-01
   scf:   76    -2327.744591    -2327.744590    -2327.744903  0.000005 -4.354212  0.002353
     spin moment: {S} , |S| = {    1.54993    0.00000   -0.00000 }     1.54993
mix (0): Broyden
mix (0): n_hist = 2 / 2
mix (0): weights =  0.1478E+03
mix (0): G =   0.010000, sum(coeff) = -.7727E-02, coeff =  -.7727E-02
mix: Broyden -- resetting history
mix (0): saved hist = 1
   scf:   77    -2327.744591    -2327.744591    -2327.744903  0.000006 -4.354213  0.002348
     spin moment: {S} , |S| = {    1.55001    0.00000   -0.00000 }     1.55001
mix (0): Broyden
mix (0): n_hist = 2 / 2
mix (0): weights =  0.1478E+03
mix (0): G =   0.010000, sum(coeff) = 0.6398E-01, coeff =  0.6398E-01
   scf:   78    -2327.744591    -2327.744591    -2327.744904  0.000007 -4.354215  0.002343
     spin moment: {S} , |S| = {    1.55010    0.00000   -0.00000 }     1.55010
mix (0): Broyden
mix (0): n_hist = 2 / 2
mix (0): weights =  0.1478E+03
mix (0): G =   0.010000, sum(coeff) = 0.1293E+00, coeff =  0.1293E+00
mix: Broyden -- resetting history
mix (0): saved hist = 1
mix (0): switching mixer --> kick
   scf:   79    -2327.744591    -2327.744591    -2327.744904  0.000007 -4.354216  0.002338
     spin moment: {S} , |S| = {    1.55020    0.00000   -0.00000 }     1.55020
mix (0): linear
mix (0): alpha = 0.1000E+00
mix (0): switching mixer --> broyden
   scf:   80    -2327.744594    -2327.744592    -2327.744905  0.000061 -4.354229  0.002290
     spin moment: {S} , |S| = {    1.55106    0.00000   -0.00000 }     1.55106
mix (0): Broyden
mix (0): n_hist = 2 / 2
mix (0): weights =  0.1478E+03
mix (0): G =   0.010000, sum(coeff) = 0.1681E+01, coeff =  0.1681E+01
   scf:   81    -2327.744598    -2327.744595    -2327.744909  0.000120 -4.354253  0.002195
     spin moment: {S} , |S| = {    1.55275    0.00000   -0.00000 }     1.55275
mix (0): Broyden
mix (0): n_hist = 2 / 2
mix (0): weights =  0.1478E+03
mix (0): G =   0.010000, sum(coeff) = 0.2434E+01, coeff =  0.2434E+01
mix: Broyden -- resetting history
mix (0): saved hist = 1
   scf:   82    -2327.744610    -2327.744602    -2327.744918  0.000434 -4.354283  0.005489
     spin moment: {S} , |S| = {    1.55864    0.00000   -0.00000 }     1.55864
mix (0): Broyden
mix (0): n_hist = 2 / 2
mix (0): weights =  0.1469E+03
mix (0): G =   0.010000, sum(coeff) = -.9062E+00, coeff =  -.9062E+00
   scf:   83    -2327.744591    -2327.744596    -2327.744910  0.000387 -4.354257  0.002161
     spin moment: {S} , |S| = {    1.55338    0.00000   -0.00000 }     1.55338
mix (0): Broyden
mix (0): n_hist = 2 / 2
mix (0): weights =  0.1478E+03
mix (0): G =   0.010000, sum(coeff) = -.3076E-01, coeff =  -.3076E-01
mix: Broyden -- resetting history
mix (0): saved hist = 1
   scf:   84    -2327.744596    -2327.744596    -2327.744910  0.000017 -4.354259  0.002147
     spin moment: {S} , |S| = {    1.55363    0.00000   -0.00000 }     1.55363
mix (0): Broyden
mix (0): n_hist = 2 / 2
mix (0): weights =  0.1478E+03
mix (0): G =   0.010000, sum(coeff) = 0.3925E+00, coeff =  0.3925E+00
   scf:   85    -2327.744597    -2327.744596    -2327.744911  0.000012 -4.354261  0.002137
     spin moment: {S} , |S| = {    1.55381    0.00000   -0.00000 }     1.55381
mix (0): Broyden
mix (0): n_hist = 2 / 2
mix (0): weights =  0.1478E+03
mix (0): G =   0.010000, sum(coeff) = 0.3887E-01, coeff =  0.3887E-01
mix: Broyden -- resetting history
mix (0): saved hist = 1
   scf:   86    -2327.744597    -2327.744596    -2327.744911  0.000006 -4.354262  0.002132
     spin moment: {S} , |S| = {    1.55390    0.00000   -0.00000 }     1.55390
mix (0): Broyden
mix (0): n_hist = 2 / 2
mix (0): weights =  0.1478E+03
mix (0): G =   0.010000, sum(coeff) = -.5210E-01, coeff =  -.5210E-01
   scf:   87    -2327.744597    -2327.744597    -2327.744911  0.000005 -4.354263  0.002128
     spin moment: {S} , |S| = {    1.55397    0.00000   -0.00000 }     1.55397
mix (0): Broyden
mix (0): n_hist = 2 / 2
mix (0): weights =  0.1478E+03
mix (0): G =   0.010000, sum(coeff) = 0.7334E-02, coeff =  0.7334E-02
mix: Broyden -- resetting history
mix (0): saved hist = 1
   scf:   88    -2327.744597    -2327.744597    -2327.744911  0.000006 -4.354263  0.002124
     spin moment: {S} , |S| = {    1.55405    0.00000   -0.00000 }     1.55405
mix (0): Broyden
mix (0): n_hist = 2 / 2
mix (0): weights =  0.1478E+03
mix (0): G =   0.010000, sum(coeff) = 0.5007E-01, coeff =  0.5007E-01
   scf:   89    -2327.744597    -2327.744597    -2327.744911  0.000006 -4.354264  0.002119
     spin moment: {S} , |S| = {    1.55413    0.00000   -0.00000 }     1.55413
mix (0): Broyden
mix (0): n_hist = 2 / 2
mix (0): weights =  0.1478E+03
mix (0): G =   0.010000, sum(coeff) = 0.8507E-01, coeff =  0.8507E-01
mix: Broyden -- resetting history
mix (0): saved hist = 1
mix (0): switching mixer --> kick
   scf:   90    -2327.744597    -2327.744597    -2327.744911  0.000006 -4.354264  0.002114
     spin moment: {S} , |S| = {    1.55422    0.00000   -0.00000 }     1.55422
mix (0): linear
mix (0): alpha = 0.1000E+00
mix (0): switching mixer --> broyden
   scf:   91    -2327.744599    -2327.744598    -2327.744913  0.000055 -4.354270  0.002071
     spin moment: {S} , |S| = {    1.55500    0.00000   -0.00000 }     1.55500
mix (0): Broyden
mix (0): n_hist = 2 / 2
mix (0): weights =  0.1478E+03
mix (0): G =   0.010000, sum(coeff) = 0.1112E+01, coeff =  0.1112E+01
   scf:   92    -2327.744601    -2327.744599    -2327.744915  0.000073 -4.354276  0.002014
     spin moment: {S} , |S| = {    1.55604    0.00000   -0.00000 }     1.55604
mix (0): Broyden
mix (0): n_hist = 2 / 2
mix (0): weights =  0.1479E+03
mix (0): G =   0.010000, sum(coeff) = 0.1380E+01, coeff =  0.1380E+01
mix: Broyden -- resetting history
mix (0): saved hist = 1
   scf:   93    -2327.744606    -2327.744603    -2327.744918  0.000175 -4.354269  0.002322
     spin moment: {S} , |S| = {    1.55843    0.00000   -0.00000 }     1.55843
mix (0): Broyden
mix (0): n_hist = 2 / 2
mix (0): weights =  0.1478E+03
mix (0): G =   0.010000, sum(coeff) = -.8433E+00, coeff =  -.8433E+00
   scf:   94    -2327.744598    -2327.744600    -2327.744915  0.000143 -4.354276  0.001990
     spin moment: {S} , |S| = {    1.55649    0.00000   -0.00000 }     1.55649
mix (0): Broyden
mix (0): n_hist = 2 / 2
mix (0): weights =  0.1479E+03
mix (0): G =   0.010000, sum(coeff) = -.4750E-01, coeff =  -.4750E-01
mix: Broyden -- resetting history
mix (0): saved hist = 1
   scf:   95    -2327.744601    -2327.744600    -2327.744916  0.000012 -4.354276  0.001980
     spin moment: {S} , |S| = {    1.55666    0.00000   -0.00000 }     1.55666
mix (0): Broyden
mix (0): n_hist = 2 / 2
mix (0): weights =  0.1479E+03
mix (0): G =   0.010000, sum(coeff) = 0.1973E+00, coeff =  0.1973E+00
   scf:   96    -2327.744601    -2327.744600    -2327.744916  0.000007 -4.354276  0.001974
     spin moment: {S} , |S| = {    1.55677    0.00000   -0.00000 }     1.55677
mix (0): Broyden
mix (0): n_hist = 2 / 2
mix (0): weights =  0.1479E+03
mix (0): G =   0.010000, sum(coeff) = -.7517E-02, coeff =  -.7517E-02
mix: Broyden -- resetting history
mix (0): saved hist = 1
   scf:   97    -2327.744601    -2327.744601    -2327.744916  0.000005 -4.354277  0.001970
     spin moment: {S} , |S| = {    1.55684    0.00000   -0.00000 }     1.55684
mix (0): Broyden
mix (0): n_hist = 2 / 2
mix (0): weights =  0.1479E+03
mix (0): G =   0.010000, sum(coeff) = -.1204E-01, coeff =  -.1204E-01
   scf:   98    -2327.744601    -2327.744601    -2327.744916  0.000005 -4.354277  0.001966
     spin moment: {S} , |S| = {    1.55691    0.00000   -0.00000 }     1.55691
mix (0): Broyden
mix (0): n_hist = 2 / 2
mix (0): weights =  0.1479E+03
mix (0): G =   0.010000, sum(coeff) = 0.2258E-01, coeff =  0.2258E-01
mix: Broyden -- resetting history
mix (0): saved hist = 1
   scf:   99    -2327.744601    -2327.744601    -2327.744916  0.000005 -4.354277  0.001962
     spin moment: {S} , |S| = {    1.55699    0.00000   -0.00000 }     1.55699
mix (0): Broyden
mix (0): n_hist = 2 / 2
mix (0): weights =  0.1479E+03
mix (0): G =   0.010000, sum(coeff) = 0.5039E-01, coeff =  0.5039E-01
   scf:  100    -2327.744601    -2327.744601    -2327.744916  0.000005 -4.354277  0.001958
     spin moment: {S} , |S| = {    1.55707    0.00000   -0.00000 }     1.55707
mix (0): Broyden
mix (0): n_hist = 2 / 2
mix (0): weights =  0.1479E+03
mix (0): G =   0.010000, sum(coeff) = 0.7104E-01, coeff =  0.7104E-01
mix: Broyden -- resetting history
mix (0): saved hist = 1
mix (0): switching mixer --> kick
   scf:  101    -2327.744601    -2327.744601    -2327.744916  0.000005 -4.354277  0.001954
     spin moment: {S} , |S| = {    1.55714    0.00000   -0.00000 }     1.55714
mix (0): linear
mix (0): alpha = 0.1000E+00
mix (0): switching mixer --> broyden
   scf:  102    -2327.744603    -2327.744602    -2327.744918  0.000051 -4.354279  0.001914
     spin moment: {S} , |S| = {    1.55787    0.00000   -0.00000 }     1.55787
mix (0): Broyden
mix (0): n_hist = 2 / 2
mix (0): weights =  0.1479E+03
mix (0): G =   0.010000, sum(coeff) = 0.8709E+00, coeff =  0.8709E+00
   scf:  103    -2327.744604    -2327.744603    -2327.744919  0.000054 -4.354280  0.001872
     spin moment: {S} , |S| = {    1.55864    0.00000   -0.00000 }     1.55864
mix (0): Broyden
mix (0): n_hist = 2 / 2
mix (0): weights =  0.1479E+03
mix (0): G =   0.010000, sum(coeff) = 0.8834E+00, coeff =  0.8834E+00
mix: Broyden -- resetting history
mix (0): saved hist = 1
   scf:  104    -2327.744606    -2327.744605    -2327.744921  0.000093 -4.354270  0.001804
     spin moment: {S} , |S| = {    1.55992    0.00000   -0.00000 }     1.55992
mix (0): Broyden
mix (0): n_hist = 2 / 2
mix (0): weights =  0.1479E+03
mix (0): G =   0.010000, sum(coeff) = -.7123E+00, coeff =  -.7123E+00
   scf:  105    -2327.744602    -2327.744603    -2327.744919  0.000062 -4.354278  0.001848
     spin moment: {S} , |S| = {    1.55908    0.00000   -0.00000 }     1.55908
mix (0): Broyden
mix (0): n_hist = 2 / 2
mix (0): weights =  0.1479E+03
mix (0): G =   0.010000, sum(coeff) = -.6711E-01, coeff =  -.6711E-01
mix: Broyden -- resetting history
mix (0): saved hist = 1
   scf:  106    -2327.744604    -2327.744604    -2327.744920  0.000009 -4.354277  0.001841
     spin moment: {S} , |S| = {    1.55921    0.00000   -0.00000 }     1.55921
mix (0): Broyden
mix (0): n_hist = 2 / 2
mix (0): weights =  0.1479E+03
mix (0): G =   0.010000, sum(coeff) = 0.1117E+00, coeff =  0.1117E+00
   scf:  107    -2327.744604    -2327.744604    -2327.744920  0.000006 -4.354277  0.001837
     spin moment: {S} , |S| = {    1.55929    0.00000   -0.00000 }     1.55929
mix (0): Broyden
mix (0): n_hist = 2 / 2
mix (0): weights =  0.1479E+03
mix (0): G =   0.010000, sum(coeff) = -.3584E-02, coeff =  -.3584E-02
mix: Broyden -- resetting history
mix (0): saved hist = 1
   scf:  108    -2327.744604    -2327.744604    -2327.744920  0.000005 -4.354277  0.001833
     spin moment: {S} , |S| = {    1.55936    0.00000   -0.00000 }     1.55936
mix (0): Broyden
mix (0): n_hist = 2 / 2
mix (0): weights =  0.1479E+03
mix (0): G =   0.010000, sum(coeff) = 0.6646E-02, coeff =  0.6646E-02
   scf:  109    -2327.744604    -2327.744604    -2327.744920  0.000005 -4.354277  0.001829
     spin moment: {S} , |S| = {    1.55943    0.00000   -0.00000 }     1.55943
mix (0): Broyden
mix (0): n_hist = 2 / 2
mix (0): weights =  0.1479E+03
mix (0): G =   0.010000, sum(coeff) = 0.2921E-01, coeff =  0.2921E-01
mix: Broyden -- resetting history
mix (0): saved hist = 1
   scf:  110    -2327.744604    -2327.744604    -2327.744920  0.000005 -4.354277  0.001825
     spin moment: {S} , |S| = {    1.55950    0.00000   -0.00000 }     1.55950
mix (0): Broyden
mix (0): n_hist = 2 / 2
mix (0): weights =  0.1479E+03
mix (0): G =   0.010000, sum(coeff) = 0.4751E-01, coeff =  0.4751E-01
   scf:  111    -2327.744604    -2327.744604    -2327.744920  0.000005 -4.354277  0.001821
     spin moment: {S} , |S| = {    1.55957    0.00000   -0.00000 }     1.55957
mix (0): Broyden
mix (0): n_hist = 2 / 2
mix (0): weights =  0.1479E+03
mix (0): G =   0.010000, sum(coeff) = 0.6046E-01, coeff =  0.6046E-01
mix: Broyden -- resetting history
mix (0): saved hist = 1
mix (0): switching mixer --> kick
   scf:  112    -2327.744604    -2327.744604    -2327.744920  0.000005 -4.354277  0.001818
     spin moment: {S} , |S| = {    1.55964    0.00000   -0.00000 }     1.55964
mix (0): linear
mix (0): alpha = 0.1000E+00
mix (0): switching mixer --> broyden
   scf:  113    -2327.744606    -2327.744605    -2327.744921  0.000047 -4.354276  0.001781
     spin moment: {S} , |S| = {    1.56032    0.00000   -0.00000 }     1.56032
mix (0): Broyden
mix (0): n_hist = 2 / 2
mix (0): weights =  0.1479E+03
mix (0): G =   0.010000, sum(coeff) = 0.7122E+00, coeff =  0.7122E+00
   scf:  114    -2327.744606    -2327.744606    -2327.744922  0.000042 -4.354274  0.001748
     spin moment: {S} , |S| = {    1.56092    0.00000   -0.00000 }     1.56092
mix (0): Broyden
mix (0): n_hist = 2 / 2
mix (0): weights =  0.1479E+03
mix (0): G =   0.010000, sum(coeff) = 0.6040E+00, coeff =  0.6040E+00
mix: Broyden -- resetting history
mix (0): saved hist = 1
   scf:  115    -2327.744608    -2327.744607    -2327.744923  0.000056 -4.354266  0.001708
     spin moment: {S} , |S| = {    1.56169    0.00000   -0.00000 }     1.56169
mix (0): Broyden
mix (0): n_hist = 2 / 2
mix (0): weights =  0.1479E+03
mix (0): G =   0.010000, sum(coeff) = -.5142E+00, coeff =  -.5142E+00
   scf:  116    -2327.744606    -2327.744606    -2327.744923  0.000024 -4.354271  0.001725
     spin moment: {S} , |S| = {    1.56136    0.00000   -0.00000 }     1.56136
mix (0): Broyden
mix (0): n_hist = 2 / 2
mix (0): weights =  0.1479E+03
mix (0): G =   0.010000, sum(coeff) = -.5497E-01, coeff =  -.5497E-01
mix: Broyden -- resetting history
mix (0): saved hist = 1
   scf:  117    -2327.744606    -2327.744606    -2327.744923  0.000006 -4.354270  0.001720
     spin moment: {S} , |S| = {    1.56144    0.00000   -0.00000 }     1.56144
mix (0): Broyden
mix (0): n_hist = 2 / 2
mix (0): weights =  0.1479E+03
mix (0): G =   0.010000, sum(coeff) = 0.4542E-01, coeff =  0.4542E-01
   scf:  118    -2327.744607    -2327.744606    -2327.744923  0.000005 -4.354270  0.001716
     spin moment: {S} , |S| = {    1.56151    0.00000   -0.00000 }     1.56151
mix (0): Broyden
mix (0): n_hist = 2 / 2
mix (0): weights =  0.1479E+03
mix (0): G =   0.010000, sum(coeff) = 0.3908E-02, coeff =  0.3908E-02
mix: Broyden -- resetting history
mix (0): saved hist = 1
   scf:  119    -2327.744607    -2327.744607    -2327.744923  0.000004 -4.354270  0.001713
     spin moment: {S} , |S| = {    1.56158    0.00000   -0.00000 }     1.56158
mix (0): Broyden
mix (0): n_hist = 2 / 2
mix (0): weights =  0.1479E+03
mix (0): G =   0.010000, sum(coeff) = 0.1708E-01, coeff =  0.1708E-01
   scf:  120    -2327.744607    -2327.744607    -2327.744923  0.000005 -4.354270  0.001709
     spin moment: {S} , |S| = {    1.56164    0.00000   -0.00000 }     1.56164
mix (0): Broyden
mix (0): n_hist = 2 / 2
mix (0): weights =  0.1479E+03
mix (0): G =   0.010000, sum(coeff) = 0.3246E-01, coeff =  0.3246E-01
mix: Broyden -- resetting history
mix (0): saved hist = 1
   scf:  121    -2327.744607    -2327.744607    -2327.744923  0.000005 -4.354269  0.001706
     spin moment: {S} , |S| = {    1.56171    0.00000   -0.00000 }     1.56171
mix (0): Broyden
mix (0): n_hist = 2 / 2
mix (0): weights =  0.1479E+03
mix (0): G =   0.010000, sum(coeff) = 0.4455E-01, coeff =  0.4455E-01
   scf:  122    -2327.744607    -2327.744607    -2327.744923  0.000005 -4.354269  0.001702
     spin moment: {S} , |S| = {    1.56178    0.00000   -0.00000 }     1.56178
mix (0): Broyden
mix (0): n_hist = 2 / 2
mix (0): weights =  0.1479E+03
mix (0): G =   0.010000, sum(coeff) = 0.5277E-01, coeff =  0.5277E-01
mix: Broyden -- resetting history
mix (0): saved hist = 1
mix (0): switching mixer --> kick
   scf:  123    -2327.744607    -2327.744607    -2327.744924  0.000005 -4.354269  0.001699
     spin moment: {S} , |S| = {    1.56184    0.00000   -0.00000 }     1.56184
mix (0): linear
mix (0): alpha = 0.1000E+00
mix (0): switching mixer --> broyden
   scf:  124    -2327.744608    -2327.744608    -2327.744924  0.000044 -4.354266  0.001664
     spin moment: {S} , |S| = {    1.56248    0.00000   -0.00000 }     1.56248
mix (0): Broyden
mix (0): n_hist = 2 / 2
mix (0): weights =  0.1480E+03
mix (0): G =   0.010000, sum(coeff) = 0.6018E+00, coeff =  0.6018E+00
   scf:  125    -2327.744609    -2327.744608    -2327.744925  0.000034 -4.354263  0.001638
     spin moment: {S} , |S| = {    1.56296    0.00000   -0.00000 }     1.56296
mix (0): Broyden
mix (0): n_hist = 2 / 2
mix (0): weights =  0.1480E+03
mix (0): G =   0.010000, sum(coeff) = 0.4369E+00, coeff =  0.4369E+00
mix: Broyden -- resetting history
mix (0): saved hist = 1
   scf:  126    -2327.744609    -2327.744609    -2327.744926  0.000036 -4.354257  0.001612
     spin moment: {S} , |S| = {    1.56347    0.00000   -0.00000 }     1.56347
mix (0): Broyden
mix (0): n_hist = 2 / 2
mix (0): weights =  0.1480E+03
mix (0): G =   0.010000, sum(coeff) = -.2445E+00, coeff =  -.2445E+00
   scf:  127    -2327.744609    -2327.744609    -2327.744926  0.000005 -4.354258  0.001615
     spin moment: {S} , |S| = {    1.56341    0.00000   -0.00000 }     1.56341
mix (0): Broyden
mix (0): n_hist = 2 / 2
mix (0): weights =  0.1480E+03
mix (0): G =   0.010000, sum(coeff) = 0.7175E-02, coeff =  0.7175E-02
mix: Broyden -- resetting history
mix (0): saved hist = 1
   scf:  128    -2327.744609    -2327.744609    -2327.744926  0.000004 -4.354258  0.001611
     spin moment: {S} , |S| = {    1.56347    0.00000   -0.00000 }     1.56347
mix (0): Broyden
mix (0): n_hist = 2 / 2
mix (0): weights =  0.1480E+03
mix (0): G =   0.010000, sum(coeff) = 0.1496E-01, coeff =  0.1496E-01
   scf:  129    -2327.744609    -2327.744609    -2327.744926  0.000004 -4.354258  0.001608
     spin moment: {S} , |S| = {    1.56353    0.00000   -0.00000 }     1.56353
mix (0): Broyden
mix (0): n_hist = 2 / 2
mix (0): weights =  0.1480E+03
mix (0): G =   0.010000, sum(coeff) = 0.1229E-01, coeff =  0.1229E-01
mix: Broyden -- resetting history
mix (0): saved hist = 1
   scf:  130    -2327.744609    -2327.744609    -2327.744926  0.000004 -4.354258  0.001605
     spin moment: {S} , |S| = {    1.56359    0.00000   -0.00000 }     1.56359
mix (0): Broyden
mix (0): n_hist = 2 / 2
mix (0): weights =  0.1480E+03
mix (0): G =   0.010000, sum(coeff) = 0.2267E-01, coeff =  0.2267E-01
   scf:  131    -2327.744609    -2327.744609    -2327.744926  0.000004 -4.354257  0.001601
     spin moment: {S} , |S| = {    1.56365    0.00000   -0.00000 }     1.56365
mix (0): Broyden
mix (0): n_hist = 2 / 2
mix (0): weights =  0.1480E+03
mix (0): G =   0.010000, sum(coeff) = 0.3328E-01, coeff =  0.3328E-01
mix: Broyden -- resetting history
mix (0): saved hist = 1
   scf:  132    -2327.744609    -2327.744609    -2327.744926  0.000004 -4.354257  0.001598
     spin moment: {S} , |S| = {    1.56372    0.00000   -0.00000 }     1.56372
mix (0): Broyden
mix (0): n_hist = 2 / 2
mix (0): weights =  0.1480E+03
mix (0): G =   0.010000, sum(coeff) = 0.4126E-01, coeff =  0.4126E-01
   scf:  133    -2327.744609    -2327.744609    -2327.744926  0.000004 -4.354256  0.001595
     spin moment: {S} , |S| = {    1.56378    0.00000   -0.00000 }     1.56378
mix (0): Broyden
mix (0): n_hist = 2 / 2
mix (0): weights =  0.1480E+03
mix (0): G =   0.010000, sum(coeff) = 0.4650E-01, coeff =  0.4650E-01
mix: Broyden -- resetting history
mix (0): saved hist = 1
mix (0): switching mixer --> kick
   scf:  134    -2327.744609    -2327.744609    -2327.744926  0.000004 -4.354256  0.001591
     spin moment: {S} , |S| = {    1.56384    0.00000   -0.00000 }     1.56384
mix (0): linear
mix (0): alpha = 0.1000E+00
mix (0): switching mixer --> broyden
   scf:  135    -2327.744610    -2327.744610    -2327.744927  0.000041 -4.354252  0.001559
     spin moment: {S} , |S| = {    1.56444    0.00000   -0.00000 }     1.56444
mix (0): Broyden
mix (0): n_hist = 2 / 2
mix (0): weights =  0.1480E+03
mix (0): G =   0.010000, sum(coeff) = 0.5178E+00, coeff =  0.5178E+00
   scf:  136    -2327.744611    -2327.744610    -2327.744928  0.000028 -4.354249  0.001538
     spin moment: {S} , |S| = {    1.56483    0.00000   -0.00000 }     1.56483
mix (0): Broyden
mix (0): n_hist = 2 / 2
mix (0): weights =  0.1480E+03
mix (0): G =   0.010000, sum(coeff) = 0.3272E+00, coeff =  0.3272E+00
mix: Broyden -- resetting history
mix (0): saved hist = 1
   scf:  137    -2327.744611    -2327.744611    -2327.744928  0.000025 -4.354244  0.001519
     spin moment: {S} , |S| = {    1.56519    0.00000   -0.00000 }     1.56519
mix (0): Broyden
mix (0): n_hist = 2 / 2
mix (0): weights =  0.1480E+03
mix (0): G =   0.010000, sum(coeff) = -.8508E-03, coeff =  -.8508E-03
   scf:  138    -2327.744611    -2327.744611    -2327.744928  0.000004 -4.354244  0.001516
     spin moment: {S} , |S| = {    1.56525    0.00000   -0.00000 }     1.56525
mix (0): Broyden
mix (0): n_hist = 2 / 2
mix (0): weights =  0.1480E+03
mix (0): G =   0.010000, sum(coeff) = 0.5059E-01, coeff =  0.5059E-01
mix: Broyden -- resetting history
mix (0): saved hist = 1
   scf:  139    -2327.744611    -2327.744611    -2327.744928  0.000004 -4.354243  0.001513
     spin moment: {S} , |S| = {    1.56531    0.00000   -0.00000 }     1.56531
mix (0): Broyden
mix (0): n_hist = 2 / 2
mix (0): weights =  0.1480E+03
mix (0): G =   0.010000, sum(coeff) = 0.1653E-01, coeff =  0.1653E-01
   scf:  140    -2327.744611    -2327.744611    -2327.744928  0.000004 -4.354243  0.001510
     spin moment: {S} , |S| = {    1.56537    0.00000   -0.00000 }     1.56537
mix (0): Broyden
mix (0): n_hist = 2 / 2
mix (0): weights =  0.1480E+03
mix (0): G =   0.010000, sum(coeff) = 0.1782E-01, coeff =  0.1782E-01
mix: Broyden -- resetting history
mix (0): saved hist = 1
   scf:  141    -2327.744611    -2327.744611    -2327.744928  0.000004 -4.354242  0.001507
     spin moment: {S} , |S| = {    1.56543    0.00000   -0.00000 }     1.56543
mix (0): Broyden
mix (0): n_hist = 2 / 2
mix (0): weights =  0.1480E+03
mix (0): G =   0.010000, sum(coeff) = 0.2570E-01, coeff =  0.2570E-01
   scf:  142    -2327.744611    -2327.744611    -2327.744928  0.000004 -4.354242  0.001503
     spin moment: {S} , |S| = {    1.56548    0.00000   -0.00000 }     1.56548
mix (0): Broyden
mix (0): n_hist = 2 / 2
mix (0): weights =  0.1480E+03
mix (0): G =   0.010000, sum(coeff) = 0.3292E-01, coeff =  0.3292E-01
mix: Broyden -- resetting history
mix (0): saved hist = 1
   scf:  143    -2327.744611    -2327.744611    -2327.744929  0.000004 -4.354241  0.001500
     spin moment: {S} , |S| = {    1.56554    0.00000   -0.00000 }     1.56554
mix (0): Broyden
mix (0): n_hist = 2 / 2
mix (0): weights =  0.1480E+03
mix (0): G =   0.010000, sum(coeff) = 0.3808E-01, coeff =  0.3808E-01
   scf:  144    -2327.744611    -2327.744611    -2327.744929  0.000004 -4.354241  0.001497
     spin moment: {S} , |S| = {    1.56560    0.00000   -0.00000 }     1.56560
mix (0): Broyden
mix (0): n_hist = 2 / 2
mix (0): weights =  0.1480E+03
mix (0): G =   0.010000, sum(coeff) = 0.4136E-01, coeff =  0.4136E-01
mix: Broyden -- resetting history
mix (0): saved hist = 1
mix (0): switching mixer --> kick
   scf:  145    -2327.744611    -2327.744611    -2327.744929  0.000004 -4.354240  0.001494
     spin moment: {S} , |S| = {    1.56566    0.00000   -0.00000 }     1.56566
mix (0): linear
mix (0): alpha = 0.1000E+00
mix (0): switching mixer --> broyden
   scf:  146    -2327.744612    -2327.744612    -2327.744929  0.000039 -4.354235  0.001464
     spin moment: {S} , |S| = {    1.56622    0.00000   -0.00000 }     1.56622
mix (0): Broyden
mix (0): n_hist = 2 / 2
mix (0): weights =  0.1480E+03
mix (0): G =   0.010000, sum(coeff) = 0.4517E+00, coeff =  0.4517E+00
   scf:  147    -2327.744612    -2327.744612    -2327.744930  0.000023 -4.354232  0.001446
     spin moment: {S} , |S| = {    1.56655    0.00000   -0.00000 }     1.56655
mix (0): Broyden
mix (0): n_hist = 2 / 2
mix (0): weights =  0.1480E+03
mix (0): G =   0.010000, sum(coeff) = 0.2520E+00, coeff =  0.2520E+00
mix: Broyden -- resetting history
mix (0): saved hist = 1
   scf:  148    -2327.744612    -2327.744612    -2327.744930  0.000018 -4.354228  0.001433
     spin moment: {S} , |S| = {    1.56681    0.00000   -0.00000 }     1.56681
mix (0): Broyden
mix (0): n_hist = 2 / 2
mix (0): weights =  0.1480E+03
mix (0): G =   0.010000, sum(coeff) = 0.1242E+00, coeff =  0.1242E+00
   scf:  149    -2327.744612    -2327.744612    -2327.744930  0.000006 -4.354227  0.001428
     spin moment: {S} , |S| = {    1.56690    0.00000   -0.00000 }     1.56690
mix (0): Broyden
mix (0): n_hist = 2 / 2
mix (0): weights =  0.1480E+03
mix (0): G =   0.010000, sum(coeff) = 0.5270E-01, coeff =  0.5270E-01
mix: Broyden -- resetting history
mix (0): saved hist = 1
   scf:  150    -2327.744612    -2327.744612    -2327.744930  0.000004 -4.354227  0.001425
     spin moment: {S} , |S| = {    1.56696    0.00000   -0.00000 }     1.56696
mix (0): Broyden
mix (0): n_hist = 2 / 2
mix (0): weights =  0.1480E+03
mix (0): G =   0.010000, sum(coeff) = 0.1951E-01, coeff =  0.1951E-01
   scf:  151    -2327.744612    -2327.744612    -2327.744930  0.000004 -4.354226  0.001422
     spin moment: {S} , |S| = {    1.56702    0.00000   -0.00000 }     1.56702
mix (0): Broyden
mix (0): n_hist = 2 / 2
mix (0): weights =  0.1480E+03
mix (0): G =   0.010000, sum(coeff) = 0.2226E-01, coeff =  0.2226E-01
mix: Broyden -- resetting history
mix (0): saved hist = 1
   scf:  152    -2327.744612    -2327.744612    -2327.744930  0.000004 -4.354226  0.001419
     spin moment: {S} , |S| = {    1.56707    0.00000   -0.00000 }     1.56707
mix (0): Broyden
mix (0): n_hist = 2 / 2
mix (0): weights =  0.1480E+03
mix (0): G =   0.010000, sum(coeff) = 0.2803E-01, coeff =  0.2803E-01
   scf:  153    -2327.744613    -2327.744612    -2327.744930  0.000004 -4.354225  0.001416
     spin moment: {S} , |S| = {    1.56713    0.00000   -0.00000 }     1.56713
mix (0): Broyden
mix (0): n_hist = 2 / 2
mix (0): weights =  0.1480E+03
mix (0): G =   0.010000, sum(coeff) = 0.3255E-01, coeff =  0.3255E-01
mix: Broyden -- resetting history
mix (0): saved hist = 1
   scf:  154    -2327.744613    -2327.744613    -2327.744931  0.000004 -4.354225  0.001413
     spin moment: {S} , |S| = {    1.56718    0.00000   -0.00000 }     1.56718
mix (0): Broyden
mix (0): n_hist = 2 / 2
mix (0): weights =  0.1480E+03
mix (0): G =   0.010000, sum(coeff) = 0.3554E-01, coeff =  0.3554E-01
   scf:  155    -2327.744613    -2327.744613    -2327.744931  0.000004 -4.354224  0.001410
     spin moment: {S} , |S| = {    1.56724    0.00000   -0.00000 }     1.56724
mix (0): Broyden
mix (0): n_hist = 2 / 2
mix (0): weights =  0.1480E+03
mix (0): G =   0.010000, sum(coeff) = 0.3735E-01, coeff =  0.3735E-01
mix: Broyden -- resetting history
mix (0): saved hist = 1
mix (0): switching mixer --> kick
   scf:  156    -2327.744613    -2327.744613    -2327.744931  0.000004 -4.354224  0.001407
     spin moment: {S} , |S| = {    1.56729    0.00000   -0.00000 }     1.56729
mix (0): linear
mix (0): alpha = 0.1000E+00
mix (0): switching mixer --> broyden
   scf:  157    -2327.744614    -2327.744613    -2327.744931  0.000037 -4.354218  0.001379
     spin moment: {S} , |S| = {    1.56782    0.00000   -0.00000 }     1.56782
mix (0): Broyden
mix (0): n_hist = 2 / 2
mix (0): weights =  0.1480E+03
mix (0): G =   0.010000, sum(coeff) = 0.3999E+00, coeff =  0.3999E+00
   scf:  158    -2327.744614    -2327.744613    -2327.744932  0.000020 -4.354215  0.001364
     spin moment: {S} , |S| = {    1.56810    0.00000   -0.00000 }     1.56810
mix (0): Broyden
mix (0): n_hist = 2 / 2
mix (0): weights =  0.1480E+03
mix (0): G =   0.010000, sum(coeff) = 0.1993E+00, coeff =  0.1993E+00
mix: Broyden -- resetting history
mix (0): saved hist = 1
   scf:  159    -2327.744614    -2327.744614    -2327.744932  0.000014 -4.354212  0.001354
     spin moment: {S} , |S| = {    1.56830    0.00000   -0.00000 }     1.56830
mix (0): Broyden
mix (0): n_hist = 2 / 2
mix (0): weights =  0.1480E+03
mix (0): G =   0.010000, sum(coeff) = 0.1479E+00, coeff =  0.1479E+00
   scf:  160    -2327.744614    -2327.744614    -2327.744932  0.000006 -4.354211  0.001349
     spin moment: {S} , |S| = {    1.56838    0.00000   -0.00000 }     1.56838
mix (0): Broyden
mix (0): n_hist = 2 / 2
mix (0): weights =  0.1480E+03
mix (0): G =   0.010000, sum(coeff) = 0.4388E-01, coeff =  0.4388E-01
mix: Broyden -- resetting history
mix (0): saved hist = 1
   scf:  161    -2327.744614    -2327.744614    -2327.744932  0.000004 -4.354210  0.001346
     spin moment: {S} , |S| = {    1.56844    0.00000   -0.00000 }     1.56844
mix (0): Broyden
mix (0): n_hist = 2 / 2
mix (0): weights =  0.1480E+03
mix (0): G =   0.010000, sum(coeff) = 0.2316E-01, coeff =  0.2316E-01
   scf:  162    -2327.744614    -2327.744614    -2327.744932  0.000004 -4.354210  0.001344
     spin moment: {S} , |S| = {    1.56849    0.00000   -0.00000 }     1.56849
mix (0): Broyden
mix (0): n_hist = 2 / 2
mix (0): weights =  0.1480E+03
mix (0): G =   0.010000, sum(coeff) = 0.2614E-01, coeff =  0.2614E-01
mix: Broyden -- resetting history
mix (0): saved hist = 1
   scf:  163    -2327.744614    -2327.744614    -2327.744932  0.000004 -4.354209  0.001341
     spin moment: {S} , |S| = {    1.56854    0.00000   -0.00000 }     1.56854
mix (0): Broyden
mix (0): n_hist = 2 / 2
mix (0): weights =  0.1480E+03
mix (0): G =   0.010000, sum(coeff) = 0.2954E-01, coeff =  0.2954E-01
   scf:  164    -2327.744614    -2327.744614    -2327.744932  0.000004 -4.354208  0.001338
     spin moment: {S} , |S| = {    1.56860    0.00000   -0.00000 }     1.56860
mix (0): Broyden
mix (0): n_hist = 2 / 2
mix (0): weights =  0.1480E+03
mix (0): G =   0.010000, sum(coeff) = 0.3183E-01, coeff =  0.3183E-01
mix: Broyden -- resetting history
mix (0): saved hist = 1
   scf:  165    -2327.744614    -2327.744614    -2327.744932  0.000004 -4.354208  0.001335
     spin moment: {S} , |S| = {    1.56865    0.00000   -0.00000 }     1.56865
mix (0): Broyden
mix (0): n_hist = 2 / 2
mix (0): weights =  0.1480E+03
mix (0): G =   0.010000, sum(coeff) = 0.3320E-01, coeff =  0.3320E-01
   scf:  166    -2327.744614    -2327.744614    -2327.744932  0.000004 -4.354207  0.001332
     spin moment: {S} , |S| = {    1.56870    0.00000   -0.00000 }     1.56870
mix (0): Broyden
mix (0): n_hist = 2 / 2
mix (0): weights =  0.1481E+03
mix (0): G =   0.010000, sum(coeff) = 0.3397E-01, coeff =  0.3397E-01
mix: Broyden -- resetting history
mix (0): saved hist = 1
mix (0): switching mixer --> kick
   scf:  167    -2327.744614    -2327.744614    -2327.744932  0.000004 -4.354207  0.001330
     spin moment: {S} , |S| = {    1.56875    0.00000   -0.00000 }     1.56875
mix (0): linear
mix (0): alpha = 0.1000E+00
mix (0): switching mixer --> broyden
   scf:  168    -2327.744615    -2327.744614    -2327.744933  0.000035 -4.354201  0.001303
     spin moment: {S} , |S| = {    1.56925    0.00000   -0.00000 }     1.56925
mix (0): Broyden
mix (0): n_hist = 2 / 2
mix (0): weights =  0.1481E+03
mix (0): G =   0.010000, sum(coeff) = 0.3575E+00, coeff =  0.3575E+00
   scf:  169    -2327.744615    -2327.744615    -2327.744933  0.000017 -4.354198  0.001290
     spin moment: {S} , |S| = {    1.56950    0.00000   -0.00000 }     1.56950
mix (0): Broyden
mix (0): n_hist = 2 / 2
mix (0): weights =  0.1481E+03
mix (0): G =   0.010000, sum(coeff) = 0.1608E+00, coeff =  0.1608E+00
mix: Broyden -- resetting history
mix (0): saved hist = 1
   scf:  170    -2327.744615    -2327.744615    -2327.744933  0.000011 -4.354195  0.001282
     spin moment: {S} , |S| = {    1.56966    0.00000   -0.00000 }     1.56966
mix (0): Broyden
mix (0): n_hist = 2 / 2
mix (0): weights =  0.1481E+03
mix (0): G =   0.010000, sum(coeff) = 0.1182E+00, coeff =  0.1182E+00
   scf:  171    -2327.744615    -2327.744615    -2327.744933  0.000005 -4.354194  0.001278
     spin moment: {S} , |S| = {    1.56972    0.00000   -0.00000 }     1.56972
mix (0): Broyden
mix (0): n_hist = 2 / 2
mix (0): weights =  0.1481E+03
mix (0): G =   0.010000, sum(coeff) = 0.3675E-01, coeff =  0.3675E-01
mix: Broyden -- resetting history
mix (0): saved hist = 1
   scf:  172    -2327.744615    -2327.744615    -2327.744933  0.000003 -4.354194  0.001276
     spin moment: {S} , |S| = {    1.56977    0.00000   -0.00000 }     1.56977
mix (0): Broyden
mix (0): n_hist = 2 / 2
mix (0): weights =  0.1481E+03
mix (0): G =   0.010000, sum(coeff) = 0.2661E-01, coeff =  0.2661E-01
   scf:  173    -2327.744615    -2327.744615    -2327.744934  0.000003 -4.354193  0.001273
     spin moment: {S} , |S| = {    1.56982    0.00000   -0.00000 }     1.56982
mix (0): Broyden
mix (0): n_hist = 2 / 2
mix (0): weights =  0.1481E+03
mix (0): G =   0.010000, sum(coeff) = 0.2805E-01, coeff =  0.2805E-01
mix: Broyden -- resetting history
mix (0): saved hist = 1
   scf:  174    -2327.744615    -2327.744615    -2327.744934  0.000003 -4.354192  0.001270
     spin moment: {S} , |S| = {    1.56987    0.00000   -0.00000 }     1.56987
mix (0): Broyden
mix (0): n_hist = 2 / 2
mix (0): weights =  0.1481E+03
mix (0): G =   0.010000, sum(coeff) = 0.2940E-01, coeff =  0.2940E-01
   scf:  175    -2327.744615    -2327.744615    -2327.744934  0.000003 -4.354192  0.001268
     spin moment: {S} , |S| = {    1.56992    0.00000   -0.00000 }     1.56992
mix (0): Broyden
mix (0): n_hist = 2 / 2
mix (0): weights =  0.1481E+03
mix (0): G =   0.010000, sum(coeff) = 0.3020E-01, coeff =  0.3020E-01
mix: Broyden -- resetting history
mix (0): saved hist = 1
   scf:  176    -2327.744615    -2327.744615    -2327.744934  0.000003 -4.354191  0.001265
     spin moment: {S} , |S| = {    1.56997    0.00000   -0.00000 }     1.56997
mix (0): Broyden
mix (0): n_hist = 2 / 2
mix (0): weights =  0.1481E+03
mix (0): G =   0.010000, sum(coeff) = 0.3062E-01, coeff =  0.3062E-01
   scf:  177    -2327.744615    -2327.744615    -2327.744934  0.000003 -4.354190  0.001263
     spin moment: {S} , |S| = {    1.57002    0.00000   -0.00000 }     1.57002
mix (0): Broyden
mix (0): n_hist = 2 / 2
mix (0): weights =  0.1481E+03
mix (0): G =   0.010000, sum(coeff) = 0.3080E-01, coeff =  0.3080E-01
mix: Broyden -- resetting history
mix (0): saved hist = 1
mix (0): switching mixer --> kick
   scf:  178    -2327.744615    -2327.744615    -2327.744934  0.000003 -4.354190  0.001260
     spin moment: {S} , |S| = {    1.57007    0.00000   -0.00000 }     1.57007
mix (0): linear
mix (0): alpha = 0.1000E+00
mix (0): switching mixer --> broyden
   scf:  179    -2327.744616    -2327.744616    -2327.744934  0.000033 -4.354184  0.001235
     spin moment: {S} , |S| = {    1.57054    0.00000   -0.00000 }     1.57054
mix (0): Broyden
mix (0): n_hist = 2 / 2
mix (0): weights =  0.1481E+03
mix (0): G =   0.010000, sum(coeff) = 0.3210E+00, coeff =  0.3210E+00
   scf:  180    -2327.744616    -2327.744616    -2327.744934  0.000015 -4.354181  0.001224
     spin moment: {S} , |S| = {    1.57076    0.00000   -0.00000 }     1.57076
mix (0): Broyden
mix (0): n_hist = 2 / 2
mix (0): weights =  0.1481E+03
mix (0): G =   0.010000, sum(coeff) = 0.1316E+00, coeff =  0.1316E+00
mix: Broyden -- resetting history
mix (0): saved hist = 1
   scf:  181    -2327.744616    -2327.744616    -2327.744935  0.000009 -4.354179  0.001217
     spin moment: {S} , |S| = {    1.57089    0.00000   -0.00000 }     1.57089
mix (0): Broyden
mix (0): n_hist = 2 / 2
mix (0): weights =  0.1481E+03
mix (0): G =   0.010000, sum(coeff) = 0.8453E-01, coeff =  0.8453E-01
   scf:  182    -2327.744616    -2327.744616    -2327.744935  0.000004 -4.354178  0.001214
     spin moment: {S} , |S| = {    1.57094    0.00000   -0.00000 }     1.57094
mix (0): Broyden
mix (0): n_hist = 2 / 2
mix (0): weights =  0.1481E+03
mix (0): G =   0.010000, sum(coeff) = 0.3236E-01, coeff =  0.3236E-01
mix: Broyden -- resetting history
mix (0): saved hist = 1
   scf:  183    -2327.744616    -2327.744616    -2327.744935  0.000003 -4.354177  0.001211
     spin moment: {S} , |S| = {    1.57099    0.00000   -0.00000 }     1.57099
mix (0): Broyden
mix (0): n_hist = 2 / 2
mix (0): weights =  0.1481E+03
mix (0): G =   0.010000, sum(coeff) = 0.2719E-01, coeff =  0.2719E-01
   scf:  184    -2327.744616    -2327.744616    -2327.744935  0.000003 -4.354177  0.001209
     spin moment: {S} , |S| = {    1.57104    0.00000   -0.00000 }     1.57104
mix (0): Broyden
mix (0): n_hist = 2 / 2
mix (0): weights =  0.1481E+03
mix (0): G =   0.010000, sum(coeff) = 0.2742E-01, coeff =  0.2742E-01
mix: Broyden -- resetting history
mix (0): saved hist = 1
   scf:  185    -2327.744616    -2327.744616    -2327.744935  0.000003 -4.354176  0.001206
     spin moment: {S} , |S| = {    1.57109    0.00000   -0.00000 }     1.57109
mix (0): Broyden
mix (0): n_hist = 2 / 2
mix (0): weights =  0.1481E+03
mix (0): G =   0.010000, sum(coeff) = 0.2770E-01, coeff =  0.2770E-01
   scf:  186    -2327.744616    -2327.744616    -2327.744935  0.000003 -4.354175  0.001204
     spin moment: {S} , |S| = {    1.57113    0.00000   -0.00000 }     1.57113
mix (0): Broyden
mix (0): n_hist = 2 / 2
mix (0): weights =  0.1481E+03
mix (0): G =   0.010000, sum(coeff) = 0.2783E-01, coeff =  0.2783E-01
mix: Broyden -- resetting history
mix (0): saved hist = 1
   scf:  187    -2327.744616    -2327.744616    -2327.744935  0.000003 -4.354175  0.001201
     spin moment: {S} , |S| = {    1.57118    0.00000   -0.00000 }     1.57118
mix (0): Broyden
mix (0): n_hist = 2 / 2
mix (0): weights =  0.1481E+03
[...]
     spin moment: {S} , |S| = {    1.57307    0.00000   -0.00000 }     1.57307
mix (0): Broyden
mix (0): n_hist = 2 / 2
mix (0): weights =  0.1481E+03
mix (0): G =   0.010000, sum(coeff) = 0.4952E-01, coeff =  0.4952E-01
   scf:  204    -2327.744618    -2327.744618    -2327.744937  0.000003 -4.354146  0.001100
     spin moment: {S} , |S| = {    1.57311    0.00000   -0.00000 }     1.57311
mix (0): Broyden
mix (0): n_hist = 2 / 2
mix (0): weights =  0.1481E+03
mix (0): G =   0.010000, sum(coeff) = 0.2526E-01, coeff =  0.2526E-01
mix: Broyden -- resetting history
mix (0): saved hist = 1
   scf:  205    -2327.744618    -2327.744618    -2327.744937  0.000003 -4.354145  0.001097
     spin moment: {S} , |S| = {    1.57316    0.00000   -0.00000 }     1.57316
mix (0): Broyden
mix (0): n_hist = 2 / 2
mix (0): weights =  0.1481E+03
mix (0): G =   0.010000, sum(coeff) = 0.2331E-01, coeff =  0.2331E-01
   scf:  206    -2327.744618    -2327.744618    -2327.744937  0.000003 -4.354145  0.001095
     spin moment: {S} , |S| = {    1.57320    0.00000   -0.00000 }     1.57320
mix (0): Broyden
mix (0): n_hist = 2 / 2
mix (0): weights =  0.1481E+03
mix (0): G =   0.010000, sum(coeff) = 0.2309E-01, coeff =  0.2309E-01
mix: Broyden -- resetting history
mix (0): saved hist = 1
   scf:  207    -2327.744618    -2327.744618    -2327.744937  0.000003 -4.354144  0.001093
     spin moment: {S} , |S| = {    1.57324    0.00000   -0.00000 }     1.57324
mix (0): Broyden
mix (0): n_hist = 2 / 2
mix (0): weights =  0.1481E+03
mix (0): G =   0.010000, sum(coeff) = 0.2297E-01, coeff =  0.2297E-01
   scf:  208    -2327.744618    -2327.744618    -2327.744937  0.000003 -4.354144  0.001091
     spin moment: {S} , |S| = {    1.57328    0.00000   -0.00000 }     1.57328
mix (0): Broyden
mix (0): n_hist = 2 / 2
mix (0): weights =  0.1481E+03
mix (0): G =   0.010000, sum(coeff) = 0.2287E-01, coeff =  0.2287E-01
mix: Broyden -- resetting history
mix (0): saved hist = 1
   scf:  209    -2327.744618    -2327.744618    -2327.744937  0.000003 -4.354143  0.001089
     spin moment: {S} , |S| = {    1.57333    0.00000   -0.00000 }     1.57333
mix (0): Broyden
mix (0): n_hist = 2 / 2
mix (0): weights =  0.1481E+03
mix (0): G =   0.010000, sum(coeff) = 0.2276E-01, coeff =  0.2276E-01
   scf:  210    -2327.744618    -2327.744618    -2327.744937  0.000003 -4.354142  0.001086
     spin moment: {S} , |S| = {    1.57337    0.00000   -0.00000 }     1.57337
mix (0): Broyden
mix (0): n_hist = 2 / 2
mix (0): weights =  0.1481E+03
mix (0): G =   0.010000, sum(coeff) = 0.2266E-01, coeff =  0.2266E-01
mix: Broyden -- resetting history
mix (0): saved hist = 1
mix (0): switching mixer --> kick
   scf:  211    -2327.744618    -2327.744618    -2327.744937  0.000003 -4.354142  0.001084
     spin moment: {S} , |S| = {    1.57341    0.00000   -0.00000 }     1.57341
mix (0): linear
mix (0): alpha = 0.1000E+00
mix (0): switching mixer --> broyden
   scf:  212    -2327.744618    -2327.744618    -2327.744937  0.000028 -4.354135  0.001063
     spin moment: {S} , |S| = {    1.57382    0.00000   -0.00000 }     1.57382
mix (0): Broyden
mix (0): n_hist = 2 / 2
mix (0): weights =  0.1481E+03
mix (0): G =   0.010000, sum(coeff) = 0.2366E+00, coeff =  0.2366E+00
   scf:  213    -2327.744618    -2327.744618    -2327.744938  0.000010 -4.354133  0.001055
     spin moment: {S} , |S| = {    1.57397    0.00000   -0.00000 }     1.57397
mix (0): Broyden
mix (0): n_hist = 2 / 2
mix (0): weights =  0.1481E+03
mix (0): G =   0.010000, sum(coeff) = 0.7665E-01, coeff =  0.7665E-01
mix: Broyden -- resetting history
mix (0): saved hist = 1
   scf:  214    -2327.744618    -2327.744618    -2327.744938  0.000005 -4.354132  0.001051
     spin moment: {S} , |S| = {    1.57405    0.00000   -0.00000 }     1.57405
mix (0): Broyden
mix (0): n_hist = 2 / 2
mix (0): weights =  0.1481E+03
mix (0): G =   0.010000, sum(coeff) = 0.4052E-01, coeff =  0.4052E-01
   scf:  215    -2327.744618    -2327.744618    -2327.744938  0.000003 -4.354131  0.001049
     spin moment: {S} , |S| = {    1.57409    0.00000   -0.00000 }     1.57409
mix (0): Broyden
mix (0): n_hist = 2 / 2
mix (0): weights =  0.1481E+03
mix (0): G =   0.010000, sum(coeff) = 0.2240E-01, coeff =  0.2240E-01
mix: Broyden -- resetting history
mix (0): saved hist = 1
   scf:  216    -2327.744618    -2327.744618    -2327.744938  0.000003 -4.354130  0.001046
     spin moment: {S} , |S| = {    1.57413    0.00000   -0.00000 }     1.57413
mix (0): Broyden
mix (0): n_hist = 2 / 2
mix (0): weights =  0.1481E+03
mix (0): G =   0.010000, sum(coeff) = 0.2111E-01, coeff =  0.2111E-01
   scf:  217    -2327.744618    -2327.744618    -2327.744938  0.000003 -4.354130  0.001044
     spin moment: {S} , |S| = {    1.57417    0.00000   -0.00000 }     1.57417
mix (0): Broyden
mix (0): n_hist = 2 / 2
mix (0): weights =  0.1481E+03
mix (0): G =   0.010000, sum(coeff) = 0.2093E-01, coeff =  0.2093E-01
mix: Broyden -- resetting history
mix (0): saved hist = 1
   scf:  218    -2327.744618    -2327.744618    -2327.744938  0.000003 -4.354129  0.001042
     spin moment: {S} , |S| = {    1.57421    0.00000   -0.00000 }     1.57421
mix (0): Broyden
mix (0): n_hist = 2 / 2
mix (0): weights =  0.1481E+03
mix (0): G =   0.010000, sum(coeff) = 0.2082E-01, coeff =  0.2082E-01
   scf:  219    -2327.744618    -2327.744618    -2327.744938  0.000003 -4.354128  0.001040
     spin moment: {S} , |S| = {    1.57425    0.00000   -0.00000 }     1.57425
mix (0): Broyden
mix (0): n_hist = 2 / 2
mix (0): weights =  0.1481E+03
mix (0): G =   0.010000, sum(coeff) = 0.2072E-01, coeff =  0.2072E-01
mix: Broyden -- resetting history
mix (0): saved hist = 1
   scf:  220    -2327.744618    -2327.744618    -2327.744938  0.000003 -4.354128  0.001038
     spin moment: {S} , |S| = {    1.57429    0.00000   -0.00000 }     1.57429
mix (0): Broyden
mix (0): n_hist = 2 / 2
mix (0): weights =  0.1481E+03
mix (0): G =   0.010000, sum(coeff) = 0.2063E-01, coeff =  0.2063E-01
   scf:  221    -2327.744619    -2327.744618    -2327.744938  0.000003 -4.354127  0.001036
     spin moment: {S} , |S| = {    1.57433    0.00000   -0.00000 }     1.57433
mix (0): Broyden
mix (0): n_hist = 2 / 2
mix (0): weights =  0.1481E+03
mix (0): G =   0.010000, sum(coeff) = 0.2054E-01, coeff =  0.2054E-01
mix: Broyden -- resetting history
mix (0): saved hist = 1
mix (0): switching mixer --> kick
   scf:  222    -2327.744619    -2327.744619    -2327.744938  0.000003 -4.354126  0.001034
     spin moment: {S} , |S| = {    1.57437    0.00000   -0.00000 }     1.57437
mix (0): linear
mix (0): alpha = 0.1000E+00
mix (0): switching mixer --> broyden
   scf:  223    -2327.744619    -2327.744619    -2327.744938  0.000027 -4.354120  0.001013
     spin moment: {S} , |S| = {    1.57476    0.00000   -0.00000 }     1.57476
mix (0): Broyden
mix (0): n_hist = 2 / 2
mix (0): weights =  0.1481E+03
mix (0): G =   0.010000, sum(coeff) = 0.2149E+00, coeff =  0.2149E+00
   scf:  224    -2327.744619    -2327.744619    -2327.744938  0.000009 -4.354118  0.001006
     spin moment: {S} , |S| = {    1.57489    0.00000   -0.00000 }     1.57489
mix (0): Broyden
mix (0): n_hist = 2 / 2
mix (0): weights =  0.1481E+03
mix (0): G =   0.010000, sum(coeff) = 0.6503E-01, coeff =  0.6503E-01
mix: Broyden -- resetting history
mix (0): saved hist = 1
   scf:  225    -2327.744619    -2327.744619    -2327.744938  0.000005 -4.354117  0.001003
     spin moment: {S} , |S| = {    1.57496    0.00000   -0.00000 }     1.57496
mix (0): Broyden
mix (0): n_hist = 2 / 2
mix (0): weights =  0.1481E+03
mix (0): G =   0.010000, sum(coeff) = 0.3384E-01, coeff =  0.3384E-01
   scf:  226    -2327.744619    -2327.744619    -2327.744938  0.000003 -4.354116  0.001001
     spin moment: {S} , |S| = {    1.57500    0.00000   -0.00000 }     1.57500
mix (0): Broyden
mix (0): n_hist = 2 / 2
mix (0): weights =  0.1481E+03
mix (0): G =   0.010000, sum(coeff) = 0.2001E-01, coeff =  0.2001E-01
mix: Broyden -- resetting history
mix (0): saved hist = 1
   scf:  227    -2327.744619    -2327.744619    -2327.744938  0.000003 -4.354115  0.000999
     spin moment: {S} , |S| = {    1.57504    0.00000   -0.00000 }     1.57504

SCF Convergence by DM+H criterion
max |DM_out - DM_in|         :     0.0000026528
max |H_out - H_in|      (eV) :     0.0009987123
SCF cycle converged after 227 iterations

:!: SCF cycle continuation mixer: linear-after
mix (0): linear
mix (0): alpha = 0.2500E-01
   scf:  228    -2327.744619    -2327.744619    -2327.744939  0.000006 -4.354114  0.000994
     spin moment: {S} , |S| = {    1.57514    0.00000   -0.00000 }     1.57514

SCF Convergence by DM+H criterion
max |DM_out - DM_in|         :     0.0000064809
max |H_out - H_in|      (eV) :     0.0009937709
SCF cycle converged after 228 iterations
mix (0): resetting history of all mixers

Using DM_out to compute the final energy and forces
No. of atoms with KB's overlaping orbs in proc 0. Max # of overlaps:       3      18

siesta: E_KS(eV) =            -2327.7446

siesta: E_KS - E_eggbox =     -2327.7446

siesta: Atomic forces (eV/Ang):
----------------------------------------
   Tot   -0.000000   -0.000000   -0.000000
----------------------------------------
   Max    0.631189
   Res    0.297545    sqrt( Sum f_i^2 / 3N )
----------------------------------------
   Max    0.631189    constrained

Stress tensor Voigt[x,y,z,yz,xz,xy] (kbar):        8.52        8.52      -14.98        0.00        0.00       -0.00
(Free)E + p*V (eV/cell)    -2327.9275
Target enthalpy (eV/cell)    -2327.7449

mulliken: Atomic and Orbital Populations:

Species: Fe_nc               

Atom      Orb        Charge      Spin       Svec
----------------------------------------------------------------
    1  1 4s         1.48524   0.10509     -0.015   0.000   0.104
    1  2 3dxy       1.26344   0.73100      0.079   0.000   0.727
    1  3 3dyz       1.35278   0.53480      0.011   0.000   0.535
    1  4 3dz2       1.36888   0.51027      0.018   0.000   0.510
    1  5 3dxz       1.35278   0.53480      0.011   0.000   0.535
    1  6 3dx2-y2    1.26333   0.73111      0.079   0.000   0.727
    1     Total     8.08645   3.14216      0.184   0.000   3.137

    2  1 4s         1.03152   0.04011      0.040   0.000  -0.000
    2  2 3dxy       1.47342   0.40873      0.409   0.000   0.000
    2  3 3dyz       1.29444   0.11814      0.118   0.000  -0.000
    2  4 3dz2       1.25966   0.11439      0.114   0.000   0.000
    2  5 3dxz       1.29444   0.11814      0.118   0.000  -0.000
    2  6 3dx2-y2    1.47362   0.40853      0.409   0.000   0.000
    2     Total     7.82710   1.20804      1.208   0.000  -0.000

    3  1 4s         1.48524   0.10509     -0.015   0.000  -0.104
    3  2 3dxy       1.26344   0.73100      0.079   0.000  -0.727
    3  3 3dyz       1.35278   0.53480      0.011   0.000  -0.535
    3  4 3dz2       1.36888   0.51027      0.018   0.000  -0.510
    3  5 3dxz       1.35278   0.53480      0.011   0.000  -0.535
    3  6 3dx2-y2    1.26333   0.73111      0.079   0.000  -0.727
    3     Total     8.08645   3.14216      0.184   0.000  -3.137

----------------------------------------------------------------
Total              24.00000   1.57514      1.575   0.000  -0.000


Mulliken Atomic Populations:
Atom #   charge [q] valence [e]           S      Sx [e]      Sy [e]      Sz [e]  Species
     1    -0.086448    8.086448    3.142156    0.183548    0.000000    3.136790  Fe_nc
     2     0.172897    7.827103    1.208040    1.208040    0.000000   -0.000000  Fe_nc
     3    -0.086448    8.086448    3.142156    0.183548    0.000000   -3.136790  Fe_nc
-------------------------------------------------------------------------------
 Total     0.000000                1.575136    1.575136    0.000000   -0.000000

siesta: Program's energy decomposition (eV):
siesta: Ebs     =      -152.173911
siesta: Eions   =      2102.576618
siesta: Ena     =        92.089899
siesta: Ekin    =      2339.335613
siesta: Enl     =     -1481.788725
siesta: Eso     =         0.000000
siesta: Edftu   =         0.000000
siesta: DEna    =       -33.774681
siesta: DUscf   =         3.942903
siesta: DUext   =         0.000000
siesta: Ex      =     -1050.578959
siesta: Ec      =       -94.394052
siesta: Exc     =     -1144.973010
siesta: EbV     =         0.000000
siesta: eta*DQ  =         0.000000
siesta: Emadel  =         0.000000
siesta: Emeta   =         0.000000
siesta: Emolmec =         0.000000
siesta: Ekinion =         0.000000
siesta: Eharris =     -2327.744619
siesta: Etot    =     -2327.744619
siesta: FreeEng =     -2327.744939

siesta: Final energy (eV):
siesta:  Band Struct. =    -152.173911
siesta:       Kinetic =    2339.335613
siesta:       Hartree =    1395.647358
siesta:         Edftu =       0.000000
siesta:       Eso     =       0.000000
siesta:    Ext. field =       0.000000
siesta:         Exch. =   -1050.578959
siesta:         Corr. =     -94.394052
siesta:     Bulk bias =       0.000000
siesta:   Exch.-corr. =   -1144.973010
siesta:  Ion-electron =   -4726.077730
siesta:       Ion-ion =    -191.676849
siesta:       Ekinion =       0.000000
siesta: D3 dispersion =       0.000000
siesta:         Total =   -2327.744619
siesta:         Fermi =      -4.354114

siesta: Atomic forces (eV/Ang):
siesta:      1    0.000000    0.000000    0.631189
siesta:      2    0.000000   -0.000000   -0.000000
siesta:      3   -0.000000   -0.000000   -0.631189
siesta: ----------------------------------------
siesta:    Tot   -0.000000   -0.000000   -0.000000

siesta: Stress tensor (static) (eV/Ang**3):
siesta:     0.005315    0.000000   -0.000000
siesta:    -0.000000    0.005315    0.000000
siesta:     0.000000    0.000000   -0.009347

siesta: Cell volume =        426.771969 Ang**3

siesta: Pressure (static):
siesta:                Solid            Molecule  Units
siesta:          -0.00000466         -0.00002537  Ry/Bohr**3
siesta:          -0.00042785         -0.00232915  eV/Ang**3
siesta:          -0.68548789         -3.73171487  kBar
(Free)E+ p_basis*V_orbitals  =       -2326.595856
(Free)Eharris+ p_basis*V_orbitals  =       -2326.595856

mulliken: Atomic and Orbital Populations:

Species: Fe_nc               

Atom      Orb        Charge      Spin       Svec
----------------------------------------------------------------
    1  1 4s         1.48524   0.10509     -0.015   0.000   0.104
    1  2 3dxy       1.26344   0.73100      0.079   0.000   0.727
    1  3 3dyz       1.35278   0.53480      0.011   0.000   0.535
    1  4 3dz2       1.36888   0.51027      0.018   0.000   0.510
    1  5 3dxz       1.35278   0.53480      0.011   0.000   0.535
    1  6 3dx2-y2    1.26333   0.73111      0.079   0.000   0.727
    1     Total     8.08645   3.14216      0.184   0.000   3.137

    2  1 4s         1.03152   0.04011      0.040   0.000  -0.000
    2  2 3dxy       1.47342   0.40873      0.409   0.000   0.000
    2  3 3dyz       1.29444   0.11814      0.118   0.000  -0.000
    2  4 3dz2       1.25966   0.11439      0.114   0.000   0.000
    2  5 3dxz       1.29444   0.11814      0.118   0.000  -0.000
    2  6 3dx2-y2    1.47362   0.40853      0.409   0.000   0.000
    2     Total     7.82710   1.20804      1.208   0.000  -0.000

    3  1 4s         1.48524   0.10509     -0.015   0.000  -0.104
    3  2 3dxy       1.26344   0.73100      0.079   0.000  -0.727
    3  3 3dyz       1.35278   0.53480      0.011   0.000  -0.535
    3  4 3dz2       1.36888   0.51027      0.018   0.000  -0.510
    3  5 3dxz       1.35278   0.53480      0.011   0.000  -0.535
    3  6 3dx2-y2    1.26333   0.73111      0.079   0.000  -0.727
    3     Total     8.08645   3.14216      0.184   0.000  -3.137

----------------------------------------------------------------
Total              24.00000   1.57514      1.575   0.000  -0.000


Mulliken Atomic Populations:
Atom #   charge [q] valence [e]           S      Sx [e]      Sy [e]      Sz [e]  Species
     1    -0.086448    8.086448    3.142156    0.183548    0.000000    3.136790  Fe_nc
     2     0.172897    7.827103    1.208040    1.208040    0.000000   -0.000000  Fe_nc
     3    -0.086448    8.086448    3.142156    0.183548    0.000000   -3.136790  Fe_nc
-------------------------------------------------------------------------------
 Total     0.000000                1.575136    1.575136    0.000000   -0.000000

cite: Please see "fullmix.bib" for an exhaustive BiBTeX file.
cite: Please clearly indicate Siesta version in published work: 5.2.0-17-gad84d481e
cite: This calculation has made use of the following articles
cite: which are encouraged to be cited in a published work.
        Primary SIESTA paper
          DOI: www.doi.org/10.1088/0953-8984/14/11/302


timer: Elapsed wall time (sec) =      11.997
timer: CPU execution times (sec):

Routine            Calls   Time/call    Tot.time        %
siesta                 1      11.986      11.986   100.00
Setup                  1       0.036       0.036     0.30
bands                  1       0.000       0.000     0.00
KSV_init               1       0.000       0.000     0.00
IterGeom               1      11.949      11.949    99.69
geom_init              1       0.208       0.208     1.73
state_init             1       0.013       0.013     0.11
hsparse                1       0.000       0.000     0.00
overlap                1       0.013       0.013     0.11
Setup_H0               1       0.145       0.145     1.21
naefs                  2       0.000       0.000     0.00
dnaefs                 2       0.000       0.000     0.00
MolMec                 2       0.000       0.000     0.00
kinefsm                2       0.006       0.012     0.10
nlefsm                 2       0.039       0.078     0.65
DHSCF_Init             1       0.055       0.055     0.46
DHSCF1                 1       0.009       0.009     0.08
InitMesh               1       0.009       0.009     0.08
INITMESH               1       0.000       0.000     0.00
DHSCF2                 1       0.046       0.046     0.38
REMESH                 1       0.003       0.003     0.03
REORD               1860       0.000       0.368     3.07
PHION                  1       0.025       0.025     0.21
COMM_BSC            3686       0.000       0.569     4.74
POISON               231       0.005       1.138     9.50
fft                  462       0.002       0.908     7.57
setup_H              229       0.050      11.544    96.32
DHSCF                230       0.050      11.613    96.89
DHSCF3               230       0.050      11.545    96.32
rhoofd               230       0.006       1.286    10.73
XC                   230       0.028       6.399    53.39
GXC-CellXC           230       0.025       5.705    47.60
gridxc@cellXC        230       0.025       5.703    47.59
vmat                 230       0.005       1.104     9.21
IterSCF              228       0.051      11.612    96.88
compute_dm           228       0.000       0.075     0.63
diagon               228       0.000       0.074     0.62
cdiag                228       0.000       0.056     0.47
cdiag1               228       0.000       0.008     0.06
cdiag2               228       0.000       0.006     0.05
cdiag3               228       0.000       0.033     0.27
cdiag4               228       0.000       0.006     0.05
MIXER                227       0.000       0.006     0.05
PostSCF                1       0.125       0.125     1.04
FINAL_HF               1       0.125       0.125     1.04
DHSCF4                 1       0.068       0.068     0.56
dfscf                  1       0.049       0.049     0.41
overfsm                1       0.000       0.000     0.00
writeHSX               1       0.000       0.000     0.00
state_analysis         1       0.000       0.000     0.00
siesta_move            1       0.000       0.000     0.00
Analysis               1       0.000       0.000     0.00
optical                1       0.000       0.000     0.00
  

>> End of run:  17-JAN-2025  13:14:09
Job completed
