<pdos>
<nspin>2</nspin>
<norbitals>26</norbitals>
<fermi_energy units="eV"> -0.529078434E+01</fermi_energy>
<energy_values units="eV">
 -0.260000000E+02
 -0.259398798E+02
 -0.258797595E+02
 -0.258196393E+02
 -0.257595190E+02
 -0.256993988E+02
 -0.256392786E+02
 -0.255791583E+02
 -0.255190381E+02
 -0.254589178E+02
 -0.253987976E+02
 -0.253386774E+02
 -0.252785571E+02
 -0.252184369E+02
 -0.251583166E+02
 -0.250981964E+02
 -0.250380762E+02
 -0.249779559E+02
 -0.249178357E+02
 -0.248577154E+02
 -0.247975952E+02
 -0.247374749E+02
 -0.246773547E+02
 -0.246172345E+02
 -0.245571142E+02
 -0.244969940E+02
 -0.244368737E+02
 -0.243767535E+02
 -0.243166333E+02
 -0.242565130E+02
 -0.241963928E+02
 -0.241362725E+02
 -0.240761523E+02
 -0.240160321E+02
 -0.239559118E+02
 -0.238957916E+02
 -0.238356713E+02
 -0.237755511E+02
 -0.237154309E+02
 -0.236553106E+02
 -0.235951904E+02
 -0.235350701E+02
 -0.234749499E+02
 -0.234148297E+02
 -0.233547094E+02
 -0.232945892E+02
 -0.232344689E+02
 -0.231743487E+02
 -0.231142285E+02
 -0.230541082E+02
 -0.229939880E+02
 -0.229338677E+02
 -0.228737475E+02
 -0.228136273E+02
 -0.227535070E+02
 -0.226933868E+02
 -0.226332665E+02
 -0.225731463E+02
 -0.225130261E+02
 -0.224529058E+02
 -0.223927856E+02
 -0.223326653E+02
 -0.222725451E+02
 -0.222124248E+02
 -0.221523046E+02
 -0.220921844E+02
 -0.220320641E+02
 -0.219719439E+02
 -0.219118236E+02
 -0.218517034E+02
 -0.217915832E+02
 -0.217314629E+02
 -0.216713427E+02
 -0.216112224E+02
 -0.215511022E+02
 -0.214909820E+02
 -0.214308617E+02
 -0.213707415E+02
 -0.213106212E+02
 -0.212505010E+02
 -0.211903808E+02
 -0.211302605E+02
 -0.210701403E+02
 -0.210100200E+02
 -0.209498998E+02
 -0.208897796E+02
 -0.208296593E+02
 -0.207695391E+02
 -0.207094188E+02
 -0.206492986E+02
 -0.205891784E+02
 -0.205290581E+02
 -0.204689379E+02
 -0.204088176E+02
 -0.203486974E+02
 -0.202885772E+02
 -0.202284569E+02
 -0.201683367E+02
 -0.201082164E+02
 -0.200480962E+02
 -0.199879760E+02
 -0.199278557E+02
 -0.198677355E+02
 -0.198076152E+02
 -0.197474950E+02
 -0.196873747E+02
 -0.196272545E+02
 -0.195671343E+02
 -0.195070140E+02
 -0.194468938E+02
 -0.193867735E+02
 -0.193266533E+02
 -0.192665331E+02
 -0.192064128E+02
 -0.191462926E+02
 -0.190861723E+02
 -0.190260521E+02
 -0.189659319E+02
 -0.189058116E+02
 -0.188456914E+02
 -0.187855711E+02
 -0.187254509E+02
 -0.186653307E+02
 -0.186052104E+02
 -0.185450902E+02
 -0.184849699E+02
 -0.184248497E+02
 -0.183647295E+02
 -0.183046092E+02
 -0.182444890E+02
 -0.181843687E+02
 -0.181242485E+02
 -0.180641283E+02
 -0.180040080E+02
 -0.179438878E+02
 -0.178837675E+02
 -0.178236473E+02
 -0.177635271E+02
 -0.177034068E+02
 -0.176432866E+02
 -0.175831663E+02
 -0.175230461E+02
 -0.174629259E+02
 -0.174028056E+02
 -0.173426854E+02
 -0.172825651E+02
 -0.172224449E+02
 -0.171623246E+02
 -0.171022044E+02
 -0.170420842E+02
 -0.169819639E+02
 -0.169218437E+02
 -0.168617234E+02
 -0.168016032E+02
 -0.167414830E+02
 -0.166813627E+02
 -0.166212425E+02
 -0.165611222E+02
 -0.165010020E+02
 -0.164408818E+02
 -0.163807615E+02
 -0.163206413E+02
 -0.162605210E+02
 -0.162004008E+02
 -0.161402806E+02
 -0.160801603E+02
 -0.160200401E+02
 -0.159599198E+02
 -0.158997996E+02
 -0.158396794E+02
 -0.157795591E+02
 -0.157194389E+02
 -0.156593186E+02
 -0.155991984E+02
 -0.155390782E+02
 -0.154789579E+02
 -0.154188377E+02
 -0.153587174E+02
 -0.152985972E+02
 -0.152384770E+02
 -0.151783567E+02
 -0.151182365E+02
 -0.150581162E+02
 -0.149979960E+02
 -0.149378758E+02
 -0.148777555E+02
 -0.148176353E+02
 -0.147575150E+02
 -0.146973948E+02
 -0.146372745E+02
 -0.145771543E+02
 -0.145170341E+02
 -0.144569138E+02
 -0.143967936E+02
 -0.143366733E+02
 -0.142765531E+02
 -0.142164329E+02
 -0.141563126E+02
 -0.140961924E+02
 -0.140360721E+02
 -0.139759519E+02
 -0.139158317E+02
 -0.138557114E+02
 -0.137955912E+02
 -0.137354709E+02
 -0.136753507E+02
 -0.136152305E+02
 -0.135551102E+02
 -0.134949900E+02
 -0.134348697E+02
 -0.133747495E+02
 -0.133146293E+02
 -0.132545090E+02
 -0.131943888E+02
 -0.131342685E+02
 -0.130741483E+02
 -0.130140281E+02
 -0.129539078E+02
 -0.128937876E+02
 -0.128336673E+02
 -0.127735471E+02
 -0.127134269E+02
 -0.126533066E+02
 -0.125931864E+02
 -0.125330661E+02
 -0.124729459E+02
 -0.124128257E+02
 -0.123527054E+02
 -0.122925852E+02
 -0.122324649E+02
 -0.121723447E+02
 -0.121122244E+02
 -0.120521042E+02
 -0.119919840E+02
 -0.119318637E+02
 -0.118717435E+02
 -0.118116232E+02
 -0.117515030E+02
 -0.116913828E+02
 -0.116312625E+02
 -0.115711423E+02
 -0.115110220E+02
 -0.114509018E+02
 -0.113907816E+02
 -0.113306613E+02
 -0.112705411E+02
 -0.112104208E+02
 -0.111503006E+02
 -0.110901804E+02
 -0.110300601E+02
 -0.109699399E+02
 -0.109098196E+02
 -0.108496994E+02
 -0.107895792E+02
 -0.107294589E+02
 -0.106693387E+02
 -0.106092184E+02
 -0.105490982E+02
 -0.104889780E+02
 -0.104288577E+02
 -0.103687375E+02
 -0.103086172E+02
 -0.102484970E+02
 -0.101883768E+02
 -0.101282565E+02
 -0.100681363E+02
 -0.100080160E+02
 -0.994789579E+01
 -0.988777555E+01
 -0.982765531E+01
 -0.976753507E+01
 -0.970741483E+01
 -0.964729459E+01
 -0.958717435E+01
 -0.952705411E+01
 -0.946693387E+01
 -0.940681363E+01
 -0.934669339E+01
 -0.928657315E+01
 -0.922645291E+01
 -0.916633267E+01
 -0.910621242E+01
 -0.904609218E+01
 -0.898597194E+01
 -0.892585170E+01
 -0.886573146E+01
 -0.880561122E+01
 -0.874549098E+01
 -0.868537074E+01
 -0.862525050E+01
 -0.856513026E+01
 -0.850501002E+01
 -0.844488978E+01
 -0.838476954E+01
 -0.832464930E+01
 -0.826452906E+01
 -0.820440882E+01
 -0.814428858E+01
 -0.808416834E+01
 -0.802404810E+01
 -0.796392786E+01
 -0.790380762E+01
 -0.784368737E+01
 -0.778356713E+01
 -0.772344689E+01
 -0.766332665E+01
 -0.760320641E+01
 -0.754308617E+01
 -0.748296593E+01
 -0.742284569E+01
 -0.736272545E+01
 -0.730260521E+01
 -0.724248497E+01
 -0.718236473E+01
 -0.712224449E+01
 -0.706212425E+01
 -0.700200401E+01
 -0.694188377E+01
 -0.688176353E+01
 -0.682164329E+01
 -0.676152305E+01
 -0.670140281E+01
 -0.664128257E+01
 -0.658116232E+01
 -0.652104208E+01
 -0.646092184E+01
 -0.640080160E+01
 -0.634068136E+01
 -0.628056112E+01
 -0.622044088E+01
 -0.616032064E+01
 -0.610020040E+01
 -0.604008016E+01
 -0.597995992E+01
 -0.591983968E+01
 -0.585971944E+01
 -0.579959920E+01
 -0.573947896E+01
 -0.567935872E+01
 -0.561923848E+01
 -0.555911824E+01
 -0.549899800E+01
 -0.543887776E+01
 -0.537875752E+01
 -0.531863727E+01
 -0.525851703E+01
 -0.519839679E+01
 -0.513827655E+01
 -0.507815631E+01
 -0.501803607E+01
 -0.495791583E+01
 -0.489779559E+01
 -0.483767535E+01
 -0.477755511E+01
 -0.471743487E+01
 -0.465731463E+01
 -0.459719439E+01
 -0.453707415E+01
 -0.447695391E+01
 -0.441683367E+01
 -0.435671343E+01
 -0.429659319E+01
 -0.423647295E+01
 -0.417635271E+01
 -0.411623246E+01
 -0.405611222E+01
 -0.399599198E+01
 -0.393587174E+01
 -0.387575150E+01
 -0.381563126E+01
 -0.375551102E+01
 -0.369539078E+01
 -0.363527054E+01
 -0.357515030E+01
 -0.351503006E+01
 -0.345490982E+01
 -0.339478958E+01
 -0.333466934E+01
 -0.327454910E+01
 -0.321442886E+01
 -0.315430862E+01
 -0.309418838E+01
 -0.303406814E+01
 -0.297394790E+01
 -0.291382766E+01
 -0.285370741E+01
 -0.279358717E+01
 -0.273346693E+01
 -0.267334669E+01
 -0.261322645E+01
 -0.255310621E+01
 -0.249298597E+01
 -0.243286573E+01
 -0.237274549E+01
 -0.231262525E+01
 -0.225250501E+01
 -0.219238477E+01
 -0.213226453E+01
 -0.207214429E+01
 -0.201202405E+01
 -0.195190381E+01
 -0.189178357E+01
 -0.183166333E+01
 -0.177154309E+01
 -0.171142285E+01
 -0.165130261E+01
 -0.159118236E+01
 -0.153106212E+01
 -0.147094188E+01
 -0.141082164E+01
 -0.135070140E+01
 -0.129058116E+01
 -0.123046092E+01
 -0.117034068E+01
 -0.111022044E+01
 -0.105010020E+01
 -0.989979960E+00
 -0.929859719E+00
 -0.869739479E+00
 -0.809619238E+00
 -0.749498998E+00
 -0.689378758E+00
 -0.629258517E+00
 -0.569138277E+00
 -0.509018036E+00
 -0.448897796E+00
 -0.388777555E+00
 -0.328657315E+00
 -0.268537074E+00
 -0.208416834E+00
 -0.148296593E+00
 -0.881763527E-01
 -0.280561122E-01
  0.320641283E-01
  0.921843687E-01
  0.152304609E+00
  0.212424850E+00
  0.272545090E+00
  0.332665331E+00
  0.392785571E+00
  0.452905812E+00
  0.513026052E+00
  0.573146293E+00
  0.633266533E+00
  0.693386774E+00
  0.753507014E+00
  0.813627255E+00
  0.873747495E+00
  0.933867735E+00
  0.993987976E+00
  0.105410822E+01
  0.111422846E+01
  0.117434870E+01
  0.123446894E+01
  0.129458918E+01
  0.135470942E+01
  0.141482966E+01
  0.147494990E+01
  0.153507014E+01
  0.159519038E+01
  0.165531062E+01
  0.171543086E+01
  0.177555110E+01
  0.183567134E+01
  0.189579158E+01
  0.195591182E+01
  0.201603206E+01
  0.207615230E+01
  0.213627255E+01
  0.219639279E+01
  0.225651303E+01
  0.231663327E+01
  0.237675351E+01
  0.243687375E+01
  0.249699399E+01
  0.255711423E+01
  0.261723447E+01
  0.267735471E+01
  0.273747495E+01
  0.279759519E+01
  0.285771543E+01
  0.291783567E+01
  0.297795591E+01
  0.303807615E+01
  0.309819639E+01
  0.315831663E+01
  0.321843687E+01
  0.327855711E+01
  0.333867735E+01
  0.339879760E+01
  0.345891784E+01
  0.351903808E+01
  0.357915832E+01
  0.363927856E+01
  0.369939880E+01
  0.375951904E+01
  0.381963928E+01
  0.387975952E+01
  0.393987976E+01
  0.400000000E+01
</energy_values>
<orbital 
 index="                        1" 
 atom_index="                        1" 
 species="C" 
 Z="                        6" 
 position="   0.020613  -0.033416   0.009151" 
 n="                        2" 
 l="                        0" 
 m="                        0" 
 z="                        1" 
 P="false" 
>
<data>
   0.100475182E-01   0.100475182E-01
   0.111981944E-01   0.111981944E-01
   0.142869368E-01   0.142869368E-01
   0.176256212E-01   0.176256212E-01
   0.198496580E-01   0.198496580E-01
   0.208195801E-01   0.208195801E-01
   0.215604103E-01   0.215604103E-01
   0.232170249E-01   0.232170249E-01
   0.259109079E-01   0.259109079E-01
   0.284847629E-01   0.284847629E-01
   0.293858474E-01   0.293858474E-01
   0.280271645E-01   0.280271645E-01
   0.254952511E-01   0.254952511E-01
   0.239046012E-01   0.239046012E-01
   0.248467430E-01   0.248467430E-01
   0.281660616E-01   0.281660616E-01
   0.319802648E-01   0.319802648E-01
   0.339095293E-01   0.339095293E-01
   0.326454891E-01   0.326454891E-01
   0.287236613E-01   0.287236613E-01
   0.239603321E-01   0.239603321E-01
   0.201277119E-01   0.201277119E-01
   0.179738061E-01   0.179738061E-01
   0.171927620E-01   0.171927620E-01
   0.171321259E-01   0.171321259E-01
   0.175657842E-01   0.175657842E-01
   0.188853727E-01   0.188853727E-01
   0.215626148E-01   0.215626148E-01
   0.254192777E-01   0.254192777E-01
   0.294626404E-01   0.294626404E-01
   0.325373856E-01   0.325373856E-01
   0.342470324E-01   0.342470324E-01
   0.352300864E-01   0.352300864E-01
   0.364227673E-01   0.364227673E-01
   0.380094769E-01   0.380094769E-01
   0.391512886E-01   0.391512886E-01
   0.387704852E-01   0.387704852E-01
   0.366261182E-01   0.366261182E-01
   0.337172896E-01   0.337172896E-01
   0.316499171E-01   0.316499171E-01
   0.314133258E-01   0.314133258E-01
   0.325539401E-01   0.325539401E-01
   0.335239115E-01   0.335239115E-01
   0.329593014E-01   0.329593014E-01
   0.307213644E-01   0.307213644E-01
   0.277773314E-01   0.277773314E-01
   0.251958250E-01   0.251958250E-01
   0.233591846E-01   0.233591846E-01
   0.220986687E-01   0.220986687E-01
   0.213995806E-01   0.213995806E-01
   0.218057758E-01   0.218057758E-01
   0.240994781E-01   0.240994781E-01
   0.285649837E-01   0.285649837E-01
   0.344433827E-01   0.344433827E-01
   0.400271348E-01   0.400271348E-01
   0.434495533E-01   0.434495533E-01
   0.437108447E-01   0.437108447E-01
   0.411839706E-01   0.411839706E-01
   0.371780284E-01   0.371780284E-01
   0.329301530E-01   0.329301530E-01
   0.288942932E-01   0.288942932E-01
   0.248849603E-01   0.248849603E-01
   0.208191605E-01   0.208191605E-01
   0.172781615E-01   0.172781615E-01
   0.153386112E-01   0.153386112E-01
   0.157995290E-01   0.157995290E-01
   0.184368383E-01   0.184368383E-01
   0.219162112E-01   0.219162112E-01
   0.245256763E-01   0.245256763E-01
   0.252283708E-01   0.252283708E-01
   0.242053987E-01   0.242053987E-01
   0.224881894E-01   0.224881894E-01
   0.211247614E-01   0.211247614E-01
   0.206632677E-01   0.206632677E-01
   0.212436618E-01   0.212436618E-01
   0.229196590E-01   0.229196590E-01
   0.256979067E-01   0.256979067E-01
   0.292072988E-01   0.292072988E-01
   0.324159120E-01   0.324159120E-01
   0.338836362E-01   0.338836362E-01
   0.325541313E-01   0.325541313E-01
   0.285025839E-01   0.285025839E-01
   0.230065640E-01   0.230065640E-01
   0.178919899E-01   0.178919899E-01
   0.146904623E-01   0.146904623E-01
   0.141305035E-01   0.141305035E-01
   0.160539395E-01   0.160539395E-01
   0.195905956E-01   0.195905956E-01
   0.234900575E-01   0.234900575E-01
   0.265756878E-01   0.265756878E-01
   0.281725727E-01   0.281725727E-01
   0.282598952E-01   0.282598952E-01
   0.272453724E-01   0.272453724E-01
   0.255763504E-01   0.255763504E-01
   0.235321286E-01   0.235321286E-01
   0.213040272E-01   0.213040272E-01
   0.191523865E-01   0.191523865E-01
   0.174092435E-01   0.174092435E-01
   0.163312316E-01   0.163312316E-01
   0.159797712E-01   0.159797712E-01
   0.162562604E-01   0.162562604E-01
   0.170456381E-01   0.170456381E-01
   0.183053768E-01   0.183053768E-01
   0.199970980E-01   0.199970980E-01
   0.219468805E-01   0.219468805E-01
   0.238329190E-01   0.238329190E-01
   0.253772649E-01   0.253772649E-01
   0.265698967E-01   0.265698967E-01
   0.276663443E-01   0.276663443E-01
   0.289020646E-01   0.289020646E-01
   0.301706862E-01   0.301706862E-01
   0.310063740E-01   0.310063740E-01
   0.309425809E-01   0.309425809E-01
   0.299069427E-01   0.299069427E-01
   0.282335585E-01   0.282335585E-01
   0.263032363E-01   0.263032363E-01
   0.242581723E-01   0.242581723E-01
   0.221000090E-01   0.221000090E-01
   0.199600144E-01   0.199600144E-01
   0.181366237E-01   0.181366237E-01
   0.168415341E-01   0.168415341E-01
   0.159734297E-01   0.159734297E-01
   0.151931664E-01   0.151931664E-01
   0.142272622E-01   0.142272622E-01
   0.130972386E-01   0.130972386E-01
   0.120824388E-01   0.120824388E-01
   0.115071172E-01   0.115071172E-01
   0.115594606E-01   0.115594606E-01
   0.122144608E-01   0.122144608E-01
   0.132061460E-01   0.132061460E-01
   0.140580959E-01   0.140580959E-01
   0.142552857E-01   0.142552857E-01
   0.135218780E-01   0.135218780E-01
   0.119947379E-01   0.119947379E-01
   0.101250673E-01   0.101250673E-01
   0.839290121E-02   0.839290121E-02
   0.708467455E-02   0.708467455E-02
   0.627396856E-02   0.627396856E-02
   0.592081930E-02   0.592081930E-02
   0.593848192E-02   0.593848192E-02
   0.619504050E-02   0.619504050E-02
   0.652156418E-02   0.652156418E-02
   0.676656296E-02   0.676656296E-02
   0.685290505E-02   0.685290505E-02
   0.678378606E-02   0.678378606E-02
   0.660226611E-02   0.660226611E-02
   0.634433876E-02   0.634433876E-02
   0.601312972E-02   0.601312972E-02
   0.558619655E-02   0.558619655E-02
   0.505711289E-02   0.505711289E-02
   0.447930916E-02   0.447930916E-02
   0.395658117E-02   0.395658117E-02
   0.357151670E-02   0.357151670E-02
   0.332149957E-02   0.332149957E-02
   0.313314502E-02   0.313314502E-02
   0.293975595E-02   0.293975595E-02
   0.274170679E-02   0.274170679E-02
   0.259564958E-02   0.259564958E-02
   0.254801323E-02   0.254801323E-02
   0.257053488E-02   0.257053488E-02
   0.255247129E-02   0.255247129E-02
   0.236534767E-02   0.236534767E-02
   0.195691695E-02   0.195691695E-02
   0.139324693E-02   0.139324693E-02
   0.803461542E-03   0.803461542E-03
   0.278512747E-03   0.278512747E-03
  -0.170352297E-03  -0.170352297E-03
  -0.559138421E-03  -0.559138421E-03
  -0.870004707E-03  -0.870004707E-03
  -0.107088946E-02  -0.107088946E-02
  -0.118283072E-02  -0.118283072E-02
  -0.128857023E-02  -0.128857023E-02
  -0.145659043E-02  -0.145659043E-02
  -0.167143787E-02  -0.167143787E-02
  -0.185342471E-02  -0.185342471E-02
  -0.193900590E-02  -0.193900590E-02
  -0.192881365E-02  -0.192881365E-02
  -0.186197475E-02  -0.186197475E-02
  -0.176136337E-02  -0.176136337E-02
  -0.161395109E-02  -0.161395109E-02
  -0.139934871E-02  -0.139934871E-02
  -0.112701687E-02  -0.112701687E-02
  -0.841278192E-03  -0.841278192E-03
  -0.592592011E-03  -0.592592011E-03
  -0.406561931E-03  -0.406561931E-03
  -0.280846350E-03  -0.280846350E-03
  -0.212366483E-03  -0.212366483E-03
  -0.227263917E-03  -0.227263917E-03
  -0.379423425E-03  -0.379423425E-03
  -0.708959830E-03  -0.708959830E-03
  -0.118811959E-02  -0.118811959E-02
  -0.169915977E-02  -0.169915977E-02
  -0.207467370E-02  -0.207467370E-02
  -0.218536500E-02  -0.218536500E-02
  -0.200904062E-02  -0.200904062E-02
  -0.161804576E-02  -0.161804576E-02
  -0.110076507E-02  -0.110076507E-02
  -0.503059474E-03  -0.503059474E-03
   0.153572591E-03   0.153572591E-03
   0.814331978E-03   0.814331978E-03
   0.137360566E-02   0.137360566E-02
   0.172536635E-02   0.172536635E-02
   0.183558102E-02   0.183558102E-02
   0.177539802E-02   0.177539802E-02
   0.169294782E-02   0.169294782E-02
   0.174149573E-02   0.174149573E-02
   0.200091077E-02   0.200091077E-02
   0.243801887E-02   0.243801887E-02
   0.293761051E-02   0.293761051E-02
   0.338392054E-02   0.338392054E-02
   0.372431487E-02   0.372431487E-02
   0.396654210E-02   0.396654210E-02
   0.413161363E-02   0.413161363E-02
   0.422044970E-02   0.422044970E-02
   0.422031155E-02   0.422031155E-02
   0.413206921E-02   0.413206921E-02
   0.399209502E-02   0.399209502E-02
   0.387663551E-02   0.387663551E-02
   0.388098003E-02   0.388098003E-02
   0.407220197E-02   0.407220197E-02
   0.444150035E-02   0.444150035E-02
   0.490089421E-02   0.490089421E-02
   0.533654087E-02   0.533654087E-02
   0.567182150E-02   0.567182150E-02
   0.588442140E-02   0.588442140E-02
   0.597959723E-02   0.597959723E-02
   0.596772831E-02   0.596772831E-02
   0.586878243E-02   0.586878243E-02
   0.571868674E-02   0.571868674E-02
   0.555680731E-02   0.555680731E-02
   0.541115696E-02   0.541115696E-02
   0.529984928E-02   0.529984928E-02
   0.523545819E-02   0.523545819E-02
   0.521429510E-02   0.521429510E-02
   0.520418654E-02   0.520418654E-02
   0.515711615E-02   0.515711615E-02
   0.504288324E-02   0.504288324E-02
   0.486989491E-02   0.486989491E-02
   0.467231056E-02   0.467231056E-02
   0.448086730E-02   0.448086730E-02
   0.430738815E-02   0.430738815E-02
   0.414917251E-02   0.414917251E-02
   0.399742339E-02   0.399742339E-02
   0.384051815E-02   0.384051815E-02
   0.366934077E-02   0.366934077E-02
   0.348876519E-02   0.348876519E-02
   0.332257569E-02   0.332257569E-02
   0.319965091E-02   0.319965091E-02
   0.313168493E-02   0.313168493E-02
   0.310443931E-02   0.310443931E-02
   0.308860206E-02   0.308860206E-02
   0.305696705E-02   0.305696705E-02
   0.299457497E-02   0.299457497E-02
   0.289951246E-02   0.289951246E-02
   0.277827545E-02   0.277827545E-02
   0.263950521E-02   0.263950521E-02
   0.248959453E-02   0.248959453E-02
   0.233368792E-02   0.233368792E-02
   0.218162247E-02   0.218162247E-02
   0.205146808E-02   0.205146808E-02
   0.196209137E-02   0.196209137E-02
   0.191586334E-02   0.191586334E-02
   0.188621926E-02   0.188621926E-02
   0.182663138E-02   0.182663138E-02
   0.170013244E-02   0.170013244E-02
   0.150664217E-02   0.150664217E-02
   0.128408000E-02   0.128408000E-02
   0.108307764E-02   0.108307764E-02
   0.938715213E-03   0.938715213E-03
   0.860365522E-03   0.860365522E-03
   0.838514796E-03   0.838514796E-03
   0.854044012E-03   0.854044012E-03
   0.883214858E-03   0.883214858E-03
   0.902942954E-03   0.902942954E-03
   0.898216292E-03   0.898216292E-03
   0.865130270E-03   0.865130270E-03
   0.806081486E-03   0.806081486E-03
   0.723993787E-03   0.723993787E-03
   0.622974687E-03   0.622974687E-03
   0.513131675E-03   0.513131675E-03
   0.411897852E-03   0.411897852E-03
   0.338331042E-03   0.338331042E-03
   0.303485198E-03   0.303485198E-03
   0.303505594E-03   0.303505594E-03
   0.321117482E-03   0.321117482E-03
   0.335382574E-03   0.335382574E-03
   0.332709630E-03   0.332709630E-03
   0.311151918E-03   0.311151918E-03
   0.276581028E-03   0.276581028E-03
   0.236300058E-03   0.236300058E-03
   0.195972915E-03   0.195972915E-03
   0.160383437E-03   0.160383437E-03
   0.134196830E-03   0.134196830E-03
   0.120181199E-03   0.120181199E-03
   0.116852482E-03   0.116852482E-03
   0.118866583E-03   0.118866583E-03
   0.120043006E-03   0.120043006E-03
   0.116002095E-03   0.116002095E-03
   0.104883813E-03   0.104883813E-03
   0.872551790E-04   0.872551790E-04
   0.660107842E-04   0.660107842E-04
   0.454481131E-04   0.454481131E-04
   0.292084182E-04   0.292084182E-04
   0.185429328E-04   0.185429328E-04
   0.123506540E-04   0.123506540E-04
   0.864353172E-05   0.864353172E-05
   0.595738628E-05   0.595738628E-05
   0.376751985E-05   0.376751985E-05
   0.209949970E-05   0.209949970E-05
   0.102387372E-05   0.102387372E-05
   0.452361771E-06   0.452361771E-06
   0.199606873E-06   0.199606873E-06
   0.997402165E-07   0.997402165E-07
   0.567348694E-07   0.567348694E-07
   0.323850530E-07   0.323850530E-07
   0.166395775E-07   0.166395775E-07
   0.732369704E-08   0.732369704E-08
   0.271314895E-08   0.271314895E-08
   0.841174061E-09   0.841174061E-09
   0.217853557E-09   0.217853557E-09
   0.471054464E-10   0.471054464E-10
   0.850272608E-11   0.850272608E-11
   0.128102797E-11   0.128102797E-11
   0.161091416E-12   0.161091416E-12
   0.169082844E-13   0.169082844E-13
   0.148128987E-14   0.148128987E-14
   0.000000000E+00   0.000000000E+00
   0.000000000E+00   0.000000000E+00
   0.000000000E+00   0.000000000E+00
   0.000000000E+00   0.000000000E+00
   0.000000000E+00   0.000000000E+00
   0.000000000E+00   0.000000000E+00
   0.000000000E+00   0.000000000E+00
   0.000000000E+00   0.000000000E+00
   0.000000000E+00   0.000000000E+00
   0.000000000E+00   0.000000000E+00
   0.000000000E+00   0.000000000E+00
   0.000000000E+00   0.000000000E+00
   0.000000000E+00   0.000000000E+00
   0.000000000E+00   0.000000000E+00
   0.000000000E+00   0.000000000E+00
   0.000000000E+00   0.000000000E+00
   0.000000000E+00   0.000000000E+00
   0.000000000E+00   0.000000000E+00
   0.000000000E+00   0.000000000E+00
   0.000000000E+00   0.000000000E+00
   0.000000000E+00   0.000000000E+00
   0.000000000E+00   0.000000000E+00
   0.000000000E+00   0.000000000E+00
   0.000000000E+00   0.000000000E+00
   0.000000000E+00   0.000000000E+00
   0.000000000E+00   0.000000000E+00
   0.000000000E+00   0.000000000E+00
   0.000000000E+00   0.000000000E+00
   0.000000000E+00   0.000000000E+00
   0.835292601E-11   0.835292601E-11
   0.105484180E-09   0.105484180E-09
   0.108885987E-08   0.108885987E-08
   0.940070563E-08   0.940070563E-08
   0.679100661E-07   0.679100661E-07
   0.410704836E-06   0.410704836E-06
   0.208065075E-05   0.208065075E-05
   0.883647215E-05   0.883647215E-05
   0.314901651E-04   0.314901651E-04
   0.942776400E-04   0.942776400E-04
   0.237519129E-03   0.237519129E-03
   0.504842090E-03   0.504842090E-03
   0.909392835E-03   0.909392835E-03
   0.140094727E-02   0.140094727E-02
   0.188142884E-02   0.188142884E-02
   0.229081961E-02   0.229081961E-02
   0.270542958E-02   0.270542958E-02
   0.334145864E-02   0.334145864E-02
   0.441957688E-02   0.441957688E-02
   0.597404854E-02   0.597404854E-02
   0.775432868E-02   0.775432868E-02
   0.931077159E-02   0.931077159E-02
   0.102290697E-01   0.102290697E-01
   0.103671643E-01   0.103671643E-01
   0.993760476E-02   0.993760476E-02
   0.939327416E-02   0.939327416E-02
   0.921128282E-02   0.921128282E-02
   0.969751077E-02   0.969751077E-02
   0.108765897E-01   0.108765897E-01
   0.124954154E-01   0.124954154E-01
   0.141430564E-01   0.141430564E-01
   0.154228205E-01   0.154228205E-01
   0.160751215E-01   0.160751215E-01
   0.160172362E-01   0.160172362E-01
   0.153434457E-01   0.153434457E-01
   0.143064890E-01   0.143064890E-01
   0.132488969E-01   0.132488969E-01
   0.124846411E-01   0.124846411E-01
   0.121999654E-01   0.121999654E-01
   0.124314323E-01   0.124314323E-01
   0.131060502E-01   0.131060502E-01
   0.140964520E-01   0.140964520E-01
   0.152656261E-01   0.152656261E-01
   0.164877689E-01   0.164877689E-01
   0.176366231E-01   0.176366231E-01
   0.185697084E-01   0.185697084E-01
   0.191611483E-01   0.191611483E-01
   0.193748287E-01   0.193748287E-01
   0.192828741E-01   0.192828741E-01
   0.189692113E-01   0.189692113E-01
   0.184115696E-01   0.184115696E-01
   0.175002604E-01   0.175002604E-01
   0.162035402E-01   0.162035402E-01
   0.147017035E-01   0.147017035E-01
   0.133315991E-01   0.133315991E-01
   0.123841705E-01   0.123841705E-01
   0.119362643E-01   0.119362643E-01
   0.118422995E-01   0.118422995E-01
   0.118614800E-01   0.118614800E-01
   0.118079069E-01   0.118079069E-01
   0.116264844E-01   0.116264844E-01
   0.113665134E-01   0.113665134E-01
   0.110971260E-01   0.110971260E-01
   0.108481607E-01   0.108481607E-01
   0.106285235E-01   0.106285235E-01
   0.104823412E-01   0.104823412E-01
   0.104879237E-01   0.104879237E-01
   0.106685530E-01   0.106685530E-01
   0.109046142E-01   0.109046142E-01
   0.109591405E-01   0.109591405E-01
   0.106137866E-01   0.106137866E-01
   0.980036259E-02   0.980036259E-02
   0.863458691E-02   0.863458691E-02
   0.736090055E-02   0.736090055E-02
   0.626422219E-02   0.626422219E-02
   0.557565585E-02   0.557565585E-02
   0.538117731E-02   0.538117731E-02
   0.557175439E-02   0.557175439E-02
   0.588887345E-02   0.588887345E-02
   0.606349855E-02   0.606349855E-02
   0.595735096E-02   0.595735096E-02
   0.559755112E-02   0.559755112E-02
   0.509024105E-02   0.509024105E-02
   0.450900466E-02   0.450900466E-02
   0.385666894E-02   0.385666894E-02
   0.310729388E-02   0.310729388E-02
   0.226688903E-02   0.226688903E-02
   0.140275793E-02   0.140275793E-02
   0.631183818E-03   0.631183818E-03
   0.676031337E-04   0.676031337E-04
  -0.253410664E-03  -0.253410664E-03
  -0.452035715E-03  -0.452035715E-03
  -0.798654019E-03  -0.798654019E-03
  -0.158686430E-02  -0.158686430E-02
  -0.294885167E-02  -0.294885167E-02
  -0.475883952E-02  -0.475883952E-02
  -0.670608854E-02  -0.670608854E-02
  -0.846238455E-02  -0.846238455E-02
  -0.980205043E-02  -0.980205043E-02
  -0.106216639E-01  -0.106216639E-01
  -0.109167585E-01  -0.109167585E-01
  -0.107720355E-01  -0.107720355E-01
  -0.103524609E-01  -0.103524609E-01
  -0.985894215E-02  -0.985894215E-02
  -0.945085764E-02  -0.945085764E-02
  -0.917384221E-02  -0.917384221E-02
  -0.893081463E-02  -0.893081463E-02
  -0.851642804E-02  -0.851642804E-02
  -0.771401515E-02  -0.771401515E-02
  -0.641797315E-02  -0.641797315E-02
  -0.470665204E-02  -0.470665204E-02
  -0.280659048E-02  -0.280659048E-02
  -0.970249937E-03  -0.970249937E-03
   0.644747577E-03   0.644747577E-03
   0.202401265E-02   0.202401265E-02
   0.326087817E-02   0.326087817E-02
   0.446031046E-02   0.446031046E-02
   0.562452426E-02   0.562452426E-02
   0.659002956E-02   0.659002956E-02
   0.708088171E-02   0.708088171E-02
   0.686583581E-02   0.686583581E-02
   0.591298207E-02   0.591298207E-02
   0.442457642E-02   0.442457642E-02
   0.272872846E-02   0.272872846E-02
   0.111616324E-02   0.111616324E-02
  -0.261610409E-03  -0.261610409E-03
  -0.138331250E-02  -0.138331250E-02
  -0.227685881E-02  -0.227685881E-02
  -0.294389888E-02  -0.294389888E-02
  -0.334367457E-02  -0.334367457E-02
  -0.343180449E-02  -0.343180449E-02
  -0.320379435E-02  -0.320379435E-02
  -0.269985533E-02  -0.269985533E-02
  -0.197689366E-02  -0.197689366E-02
  -0.108768097E-02  -0.108768097E-02
  -0.925440710E-04  -0.925440710E-04
   0.911170437E-03   0.911170437E-03
   0.178336441E-02   0.178336441E-02
   0.239128383E-02   0.239128383E-02
   0.269804834E-02   0.269804834E-02
   0.281597971E-02   0.281597971E-02
   0.295469896E-02   0.295469896E-02
   0.328343703E-02   0.328343703E-02
   0.382496120E-02   0.382496120E-02
   0.448807373E-02   0.448807373E-02
</data>
</orbital>
<orbital 
 index="                        2" 
 atom_index="                        1" 
 species="C" 
 Z="                        6" 
 position="   0.020613  -0.033416   0.009151" 
 n="                        2" 
 l="                        0" 
 m="                        0" 
 z="                        2" 
 P="false" 
>
<data>
   0.979642664E-02   0.979642664E-02
   0.106908078E-01   0.106908078E-01
   0.129603282E-01   0.129603282E-01
   0.153435479E-01   0.153435479E-01
   0.168042332E-01   0.168042332E-01
   0.171547286E-01   0.171547286E-01
   0.170253998E-01   0.170253998E-01
   0.171742076E-01   0.171742076E-01
   0.177642382E-01   0.177642382E-01
   0.182477046E-01   0.182477046E-01
   0.179147632E-01   0.179147632E-01
   0.166325207E-01   0.166325207E-01
   0.151696400E-01   0.151696400E-01
   0.147918763E-01   0.147918763E-01
   0.163642743E-01   0.163642743E-01
   0.195975564E-01   0.195975564E-01
   0.230155280E-01   0.230155280E-01
   0.247738229E-01   0.247738229E-01
   0.238485606E-01   0.238485606E-01
   0.207079751E-01   0.207079751E-01
   0.169054172E-01   0.169054172E-01
   0.139654050E-01   0.139654050E-01
   0.125013873E-01   0.125013873E-01
   0.121583094E-01   0.121583094E-01
   0.122376944E-01   0.122376944E-01
   0.124048942E-01   0.124048942E-01
   0.129035429E-01   0.129035429E-01
   0.141602266E-01   0.141602266E-01
   0.162168342E-01   0.162168342E-01
   0.185610992E-01   0.185610992E-01
   0.205202281E-01   0.205202281E-01
   0.218376951E-01   0.218376951E-01
   0.228468334E-01   0.228468334E-01
   0.240236150E-01   0.240236150E-01
   0.253697507E-01   0.253697507E-01
   0.263066759E-01   0.263066759E-01
   0.262198703E-01   0.262198703E-01
   0.251122247E-01   0.251122247E-01
   0.237456508E-01   0.237456508E-01
   0.231196700E-01   0.231196700E-01
   0.236683548E-01   0.236683548E-01
   0.248268660E-01   0.248268660E-01
   0.254116361E-01   0.254116361E-01
   0.245698859E-01   0.245698859E-01
   0.224585457E-01   0.224585457E-01