Siesta Version  : 5.0.0-alpha-123-gfb8fd7d02
Architecture    : ----
Compiler version: GNU-11.4.0
Compiler flags  : -fallow-argument-mismatch;-O3 -march=native
PP flags        : ----
Libraries       : ----
Parallelisations: none
GEMM3M support
NetCDF support
NetCDF-4 support
Lua support

Runtime information:
* Directory : /home/fnpedron/Siesta/siesta-dev/Tests/10.Functionals/work/lyp
* Running in serial mode.
>> Start of run:  28-SEP-2023  15:38:04

                           *********************** 
                           *  WELCOME TO SIESTA  * 
                           *********************** 

reinit: Reading from standard input
reinit: Dumping input in INPUT_TMP.78522
************************** Dump of input data file ****************************
%include ../../basejob.fdf
SystemLabel     lyp
xc.functional   GGA
xc.authors      LYP
************************** End of input data file *****************************

reinit: -----------------------------------------------------------------------
reinit: System Name: Graphite
reinit: -----------------------------------------------------------------------
reinit: System Label: lyp
reinit: -----------------------------------------------------------------------

initatom: Reading input for the pseudopotentials and atomic orbitals ----------
Species number:   1 Atomic number:    6 Label: C


---- Processing specs for species: C
Ground state valence configuration:   2s02  2p02
Reading pseudopotential information in formatted form from:
  /home/fnpedron/Siesta/siesta-dev/Tests/Pseudos/C.psf

---- Pseudopotential check for C 

Pseudized shells:
2s( 2.00) rc: 1.49
2p( 2.00) rc: 1.52
3d( 0.00) rc: 1.58
Valence configuration for ps generation: (assumed as above)
For C, standard SIESTA heuristics set lmxkb to 3
 (one more than the basis l, including polarization orbitals).
Use PS.lmax or PS.KBprojectors blocks to override.
C pseudopotential only contains V_ls up to l=2 -- lmxkb reset.

<basis_specs>
===============================================================================
C                    Z=   6    Mass=  12.011        Charge= 0.17977+309
Lmxo=2 Lmxkb= 2    BasisType=split      Semic=F
L=0  Nsemic=0  Cnfigmx=2
          i=1  nzeta=1  polorb=0  (2s)
            splnorm:   0.15000    
               vcte:    40.000    
               rinn:  -0.90000    
               qcoe:    0.0000    
               qyuk:    0.0000    
               qwid:   0.10000E-01
                rcs:    0.0000    
            lambdas:    1.0000    
L=1  Nsemic=0  Cnfigmx=2
          i=1  nzeta=1  polorb=1  (2p)  (to be polarized perturbatively)
            splnorm:   0.15000    
               vcte:    40.000    
               rinn:  -0.90000    
               qcoe:    0.0000    
               qyuk:    0.0000    
               qwid:   0.10000E-01
                rcs:    0.0000    
            lambdas:    1.0000    
L=2  Nsemic=0  Cnfigmx=3
          i=1  nzeta=0  polorb=0  (3d)  (perturbative polarization orbital) (from 2p)
-------------------------------------------------------------------------------
L=0  Nkbl=1  erefs: 0.17977+309
L=1  Nkbl=1  erefs: 0.17977+309
L=2  Nkbl=1  erefs: 0.17977+309
===============================================================================
</basis_specs>

Filter: Requested cutoff:   50.000000 Ry
Using PAO.SplitTailNorm
atom: Called for C                     (Z =   6)
Maximum radius (at nrval) set to   50.00000 8518

read_vps: Pseudopotential generation method:
read_vps: ATM3      Troullier-Martins                       
Valence charge in pseudo generation:    4.00000

xc_check: Exchange-correlation functional:
xc_check: GGA Becke Lee Yang Parr
xc_check: WARNING: Pseudopotential generated with LDA CA functional
V l=0 = -2*Zval/r beyond r=  1.4801
V l=1 = -2*Zval/r beyond r=  1.5087
V l=2 = -2*Zval/r beyond r=  1.5628
All V_l potentials equal beyond r=  1.5612
This should be close to max(r_c) in ps generation
All pots = -2*Zval/r beyond r=  1.5628
Using small-core scheme (local charge) for Vlocal

VLOCAL_FROM_CHLOCAL: 99.0% of the norm of Vloc inside     17.810 Ry
VLOCAL_FROM_CHLOCAL: 99.9% of the norm of Vloc inside     40.589 Ry
atom: Maximum radius for chlocal:    1.86354
atom: Maximum radius for r*vlocal+2*Zval:    1.70915

KBgen: Kleinman-Bylander projectors: 
GHOST: No ghost state for L =  0
   l= 0   rc=  1.745634   el= -1.006197   Ekb=  5.160832   kbcos=  0.304379
GHOST: No ghost state for L =  1
   l= 1   rc=  1.743879   el= -0.405045   Ekb= -4.320634   kbcos= -0.376025
GHOST: No ghost state for L =  2
   l= 2   rc=  1.934160   el=  0.012521   Ekb= -1.016595   kbcos= -0.010682

KBgen: Total number of Kleinman-Bylander projectors:   9
atom: -------------------------------------------------------------------------

atom: SANKEY-TYPE ORBITALS:

SPLIT: Orbitals with angular momentum L= 0

SPLIT: Basis orbitals for state 2s

SPLIT: PAO cut-off radius determined from an
SPLIT: energy shift=  0.003675 Ry
Split based on tail norm

   izeta = 1
                 lambda =    1.000000
                     rc =    5.027096
                 energy =   -1.001947
                kinetic =    0.853104
    potential(screened) =   -1.855051
       potential(ionic) =   -5.436247
PAO Filter: Cutoff used:   24.50 Ry
PAO Filter: diagnostic kin energy tol:    0.003000 Ry
PAO Filter: Nominal cutoff (before filtering):   26.93 Ry
Filter:    Number of eigenfunctions  of the
           filtering kernel (total, used)= 26  6

SPLIT: Orbitals with angular momentum L= 1

SPLIT: Basis orbitals for state 2p

SPLIT: PAO cut-off radius determined from an
SPLIT: energy shift=  0.003675 Ry
Split based on tail norm

   izeta = 1
                 lambda =    1.000000
                     rc =    6.093301
                 energy =   -0.400761
                kinetic =    2.477944
    potential(screened) =   -2.878706
       potential(ionic) =   -6.336930
PAO Filter: Cutoff used:   24.50 Ry
PAO Filter: diagnostic kin energy tol:    0.003000 Ry
PAO Filter: Nominal cutoff (before filtering):   41.36 Ry
Filter:    Number of eigenfunctions  of the
           filtering kernel (total, used)= 30  7

POLgen: Perturbative polarization orbital with L=  2

POLgen: Polarization orbital for state 2p
Split based on tail norm

   izeta = 1
                     rc =    6.093301
                 energy =    1.077087
                kinetic =    2.191469
    potential(screened) =   -1.114383
       potential(ionic) =   -3.904758
PAO Filter: diagnostic kin energy tol:    0.003000 Ry
PAO Filter: Nominal cutoff (before filtering):   44.79 Ry
Filter:    Number of eigenfunctions  of the
           filtering kernel (total, used)= 30  7
atom: Total number of Sankey-type orbitals:  9

atm_pop: Valence configuration (for local Pseudopot. screening):
 2s( 2.00)                                                            
 2p( 2.00)                                                            
 3d( 0.00)                                                            
Vna: chval, zval:    4.00000   4.00000

Vna:  Cut-off radius for the neutral-atom potential:   6.093301
VNA Filter: diagnostic kinetic energy tol:    0.003000 Ry
VNA Filter: Nominal cutoff (before filtering):   21.89 Ry
VNA Filter: Cutoff used:    50.00 Ry
Filter:    Number of eigenfunctions  of the
           filtering kernel (total, used)= 38 12

atom: _________________________________________________________________________

prinput: Basis input 

PAO.BasisType split     

%block ChemicalSpeciesLabel
    1    6 C                       # Species index, atomic number, species label
%endblock ChemicalSpeciesLabel

%block PAO.Basis                 # Define Basis set
# WARNING: This information might be incomplete!
C                     2                    # Species label, number of l-shells
 n=2   0   1                         # n, l, Nzeta 
   5.027   
   1.000   
 n=2   1   1 P   1                   # n, l, Nzeta, Polarization, NzetaPol
   6.093   
   1.000   
%endblock PAO.Basis

prinput: ----------------------------------------------------------------------

Dumping basis to NetCDF file C.ion.nc
coor:   Atomic-coordinates input format  =     Fractional

siesta: Atomic coordinates (Bohr) and species
siesta:      0.00000   0.00000   0.00000  1        1
siesta:      0.00000   0.00000   6.33814  1        2
siesta:     -0.00000   2.68503   0.00000  1        3
siesta:      2.32531   1.34252   6.33814  1        4

siesta: System type = bulk      

initatomlists: Number of atoms, orbitals, and projectors:      4    36    36

siesta: ******************** Simulation parameters ****************************
siesta:
siesta: The following are some of the parameters of the simulation.
siesta: A complete list of the parameters used, including default values,
siesta: can be found in file out.fdf
siesta:
redata: Spin configuration                          = none
redata: Number of spin components                   = 1
redata: Time-Reversal Symmetry                      = T
redata: Spin spiral                                 = F
redata: Long output                                 =   F
redata: Number of Atomic Species                    =        1
redata: Charge density info will appear in .RHO file
redata: Write Mulliken Pop.                         = NO
redata: Matel table size (NRTAB)                    =     1024
redata: Mesh Cutoff                                 =    50.0000 Ry
redata: Net charge of the system                    =     0.0000 |e|
redata: Min. number of SCF Iter                     =        0
redata: Max. number of SCF Iter                     =     1000
redata: SCF convergence failure will abort job
redata: SCF mix quantity                            = Hamiltonian
redata: Mix DM or H after convergence               =   F
redata: Recompute H after scf cycle                 =   F
redata: Mix DM in first SCF step                    =   T
redata: Write Pulay info on disk                    =   F
redata: New DM Occupancy tolerance                  = 0.000000000001
redata: No kicks to SCF
redata: DM Mixing Weight for Kicks                  =     0.5000
redata: Require Harris convergence for SCF          =   F
redata: Harris energy tolerance for SCF             =     0.000100 eV
redata: Require DM convergence for SCF              =   T
redata: DM tolerance for SCF                        =     0.000100
redata: Require EDM convergence for SCF             =   F
redata: EDM tolerance for SCF                       =     0.001000 eV
redata: Require H convergence for SCF               =   T
redata: Hamiltonian tolerance for SCF               =     0.001000 eV
redata: Require (free) Energy convergence for SCF   =   F
redata: (free) Energy tolerance for SCF             =     0.000100 eV
redata: Using DFT-D3 dispersion                     =   F
redata: Using Saved Data (generic)                  =   F
redata: Use continuation files for DM               =   F
redata: Neglect nonoverlap interactions             =   F
redata: Method of Calculation                       = Diagonalization
redata: Electronic Temperature                      =   299.9863 K
redata: Fix the spin of the system                  =   F
redata: Max. number of TDED Iter                    =        1
redata: Number of TDED substeps                     =        3
redata: Dynamics option                             = Single-point calculation
mix.SCF: Pulay mixing                            = Pulay
mix.SCF:    Variant                              = stable
mix.SCF:    History steps                        = 2
mix.SCF:    Linear mixing weight                 =     0.250000
mix.SCF:    Mixing weight                        =     0.250000
mix.SCF:    SVD condition                        = 0.1000E-07
redata: Save all siesta data in one NC              =   F
redata: ***********************************************************************

%block SCF.Mixers
  Pulay
%endblock SCF.Mixers

%block SCF.Mixer.Pulay
  # Mixing method
  method pulay
  variant stable

  # Mixing options
  weight 0.2500
  weight.linear 0.2500
  history 2
%endblock SCF.Mixer.Pulay

DM_history_depth set to one: no extrapolation allowed by default for geometry relaxation
Size of DM history Fstack: 1
Total number of electrons:    16.000000
Total ionic charge:    16.000000
 Kpoints in:           25 . Kpoints trimmed:           25

siesta: k-grid: Number of k-points = 25
siesta: k-points from cutoff
siesta: k-cutoff (effective) =     6.152 Ang
siesta: k-point supercell and displacements
siesta: k-grid:     0     5     0      0.000
siesta: k-grid:     5     0     0      0.000
siesta: k-grid:     0     0     2      0.500

diag: Algorithm                                     = D&C
diag: Used triangular part                          = Lower
diag: Absolute tolerance                            =  0.100E-15
diag: Orthogonalization factor                      =  0.100E-05
diag: Memory factor                                 =  1.0000

superc: Internal auxiliary supercell:     7 x     7 x     3  =     147
superc: Number of atoms, orbitals, and projectors:    588   5292   5292


ts: **************************************************************
ts: Save H and S matrices                           =    F
ts: Save DM and EDM matrices                        =    F
ts: Only save the overlap matrix S                  =    F
ts: **************************************************************

************************ Begin: TS CHECKS AND WARNINGS ************************
************************ End: TS CHECKS AND WARNINGS **************************


                     ====================================
                        Single-point calculation
                     ====================================

superc: Internal auxiliary supercell:     7 x     7 x     3  =     147
superc: Number of atoms, orbitals, and projectors:    588   5292   5292

outcell: Unit cell vectors (Ang):
        2.461000    0.000000    0.000000
       -1.230500    2.131289    0.000000
        0.000000    0.000000    6.708000

outcell: Cell vector modules (Ang)   :    2.461000    2.461000    6.708000
outcell: Cell angles (23,13,12) (deg):     90.0000     90.0000    120.0000
outcell: Cell volume (Ang**3)        :     35.1841
<dSpData1D:S at geom step 0
  <sparsity:sparsity for geom step 0
    nrows_g=36 nrows=36 sparsity=48.2870 nnzs=62580, refcount: 7>
  <dData1D:(new from dSpData1D) n=62580, refcount: 1>
refcount: 1>
new_DM -- step:     1
Initializing Density Matrix...
DM filled with atomic data:
<dSpData2D:DM initialized from atoms
  <sparsity:sparsity for geom step 0
    nrows_g=36 nrows=36 sparsity=48.2870 nnzs=62580, refcount: 8>
  <dData2D:DM n=62580 m=1, refcount: 1>
refcount: 1>
No. of atoms with KB's overlaping orbs in proc 0. Max # of overlaps:      70     333

InitMesh: MESH = 10 x 10 x 30 = 3000
InitMesh: Mesh cutoff (required, used) =    50.000    55.279 Ry
New grid distribution [1]: sub = 2

stepf: Fermi-Dirac step function

siesta: Program's energy decomposition (eV):
siesta: Ebs     =      -232.874507
siesta: Eions   =       997.163120
siesta: Ena     =       199.430562
siesta: Ekin    =       402.230199
siesta: Enl     =       -33.826203
siesta: Eso     =         0.000000
siesta: Edftu   =         0.000000
siesta: DEna    =         0.362510
siesta: DUscf   =         0.737108
siesta: DUext   =         0.000000
siesta: Ex      =      -168.669322
siesta: Ec      =       -14.107690
siesta: Exc     =      -182.777011
siesta: EbV     =         0.000000
siesta: eta*DQ  =         0.000000
siesta: Emadel  =         0.000000
siesta: Emeta   =         0.000000
siesta: Emolmec =         0.000000
siesta: Ekinion =         0.000000
siesta: Eharris =      -602.741300
siesta: Etot    =      -611.005956
siesta: FreeEng =      -611.005956

        iscf     Eharris(eV)        E_KS(eV)     FreeEng(eV)     dDmax    Ef(eV) dHmax(eV)
   scf:    1     -602.741300     -611.005956     -611.005956  1.316078 -4.475669  0.328536
timer: Routine,Calls,Time,% = IterSCF        1       0.098  23.31
   scf:    2     -611.014538     -611.010311     -611.010311  0.003353 -4.397720  0.223651
   scf:    3     -611.018120     -611.014518     -611.014518  0.006902 -4.230102  0.012477
   scf:    4     -611.014552     -611.014535     -611.014535  0.000397 -4.230352  0.009401
   scf:    5     -611.014576     -611.014556     -611.014556  0.001017 -4.230972  0.001251
   scf:    6     -611.014558     -611.014557     -611.014557  0.000124 -4.230990  0.000536
   scf:    7     -611.014557     -611.014557     -611.014557  0.000080 -4.230994  0.000105

SCF Convergence by DM+H criterion
max |DM_out - DM_in|         :     0.0000803575
max |H_out - H_in|      (eV) :     0.0001054123
SCF cycle converged after 7 iterations

Using DM_out to compute the final energy and forces
No. of atoms with KB's overlaping orbs in proc 0. Max # of overlaps:      70     333

siesta: E_KS(eV) =             -611.0146

siesta: E_KS - E_eggbox =      -611.0146

siesta: Atomic forces (eV/Ang):
----------------------------------------
   Tot    0.000000   -0.000000   -0.000000
----------------------------------------
   Max    0.013958
   Res    0.009141    sqrt( Sum f_i^2 / 3N )
----------------------------------------
   Max    0.013958    constrained

Stress tensor Voigt[x,y,z,yz,xz,xy] (kbar):     -765.61     -767.92       28.62       -0.00        0.00       -2.00
(Free)E + p*V (eV/cell)     -599.9985
Target enthalpy (eV/cell)     -611.0146

siesta: Program's energy decomposition (eV):
siesta: Ebs     =      -233.880824
siesta: Eions   =       997.163120
siesta: Ena     =       199.430562
siesta: Ekin    =       400.882818
siesta: Enl     =       -33.600724
siesta: Eso     =         0.000000
siesta: Edftu   =         0.000000
siesta: DEna    =         1.240182
siesta: DUscf   =         0.721622
siesta: DUext   =         0.000000
siesta: Ex      =      -168.418975
siesta: Ec      =       -14.106922
siesta: Exc     =      -182.525896
siesta: EbV     =         0.000000
siesta: eta*DQ  =         0.000000
siesta: Emadel  =         0.000000
siesta: Emeta   =         0.000000
siesta: Emolmec =         0.000000
siesta: Ekinion =         0.000000
siesta: Eharris =      -611.014557
siesta: Etot    =      -611.014557
siesta: FreeEng =      -611.014557

siesta: Final energy (eV):
siesta:  Band Struct. =    -233.880824
siesta:       Kinetic =     400.882818
siesta:       Hartree =     161.782530
siesta:         Edftu =       0.000000
siesta:       Eso     =       0.000000
siesta:    Ext. field =       0.000000
siesta:         Exch. =    -168.418975
siesta:         Corr. =     -14.106922
siesta:     Bulk bias =       0.000000
siesta:   Exch.-corr. =    -182.525896
siesta:  Ion-electron =    -720.632261
siesta:       Ion-ion =    -270.521748
siesta:       Ekinion =       0.000000
siesta: D3 dispersion =       0.000000
siesta:         Total =    -611.014557
siesta:         Fermi =      -4.230994

siesta: Stress tensor (static) (eV/Ang**3):
siesta:    -0.477859   -0.001247    0.000000
siesta:    -0.001247   -0.479300   -0.000000
siesta:     0.000000   -0.000000    0.017863

siesta: Cell volume =         35.184138 Ang**3

siesta: Pressure (static):
siesta:                Solid            Molecule  Units
siesta:           0.00341007          0.00341244  Ry/Bohr**3
siesta:           0.31309861          0.31331556  eV/Ang**3
siesta:         501.63927107        501.98687582  kBar
(Free)E+ p_basis*V_orbitals  =        -609.218445
(Free)Eharris+ p_basis*V_orbitals  =        -609.218445

cite: Please see "lyp.bib" for an exhaustive BiBTeX file.
cite: Please clearly indicate Siesta version in published work: 5.0.0-alpha-123-gfb8fd7d02
cite: This calculation has made use of the following articles
cite: which are encouraged to be cited in a published work.
        Primary SIESTA paper
          DOI: www.doi.org/10.1088/0953-8984/14/11/302


timer: Elapsed wall time (sec) =       1.257
timer: CPU execution times (sec):

Routine            Calls   Time/call    Tot.time        %
siesta                 1       1.250       1.250   100.00
Setup                  1       0.059       0.059     4.74
bands                  1       0.000       0.000     0.00
KSV_init               1       0.000       0.000     0.00
IterGeom               1       1.190       1.190    95.19
geom_init              1       0.262       0.262    20.96
state_init             1       0.057       0.057     4.53
hsparse                1       0.007       0.007     0.57
overlap                1       0.034       0.034     2.70
Setup_H0               1       0.165       0.165    13.18
naefs                  2       0.000       0.000     0.03
MolMec                 2       0.000       0.000     0.00
kinefsm                2       0.021       0.041     3.29
nlefsm                 2       0.093       0.186    14.84
DHSCF_Init             1       0.027       0.027     2.19
DHSCF1                 1       0.001       0.001     0.10
INITMESH               1       0.000       0.000     0.00
DHSCF2                 1       0.026       0.026     2.08
REMESH                 1       0.003       0.003     0.26
REORD                 26       0.000       0.000     0.01
PHION                  1       0.020       0.020     1.64
COMM_BSC              39       0.000       0.000     0.01
POISON                10       0.000       0.001     0.04
fft                   20       0.000       0.000     0.02
setup_H                8       0.040       0.317    25.32
DHSCF                  9       0.052       0.466    37.29
DHSCF3                 9       0.039       0.353    28.25
rhoofd                 9       0.021       0.193    15.44
XC                     9       0.001       0.012     0.93
GXC-CellXC             9       0.001       0.012     0.92
gridxc@cellXC          9       0.001       0.012     0.92
vmat                   9       0.016       0.148    11.82
IterSCF                7       0.097       0.678    54.19
compute_dm             7       0.056       0.395    31.60
diagon                 7       0.056       0.394    31.53
c-eigval             175       0.001       0.120     9.63
c-buildHS            175       0.001       0.106     8.52
cdiag                350       0.000       0.041     3.24
cdiag1               350       0.000       0.002     0.17
cdiag2               350       0.000       0.008     0.62
cdiag3               350       0.000       0.028     2.27
c-eigvec             175       0.001       0.132    10.59
cdiag4               175       0.000       0.001     0.05
c-buildD             175       0.001       0.141    11.25
MIXER                  6       0.000       0.002     0.18
PostSCF                1       0.250       0.250    20.01
DHSCF4                 1       0.113       0.113     9.04
dfscf                  1       0.111       0.111     8.84
overfsm                1       0.009       0.009     0.72
state_analysis         1       0.000       0.000     0.01
siesta_move            1       0.000       0.000     0.00
Analysis               1       0.001       0.001     0.04
optical                1       0.000       0.000     0.00
  

>> End of run:  28-SEP-2023  15:38:06
Job completed
