Executable      : /home/fnpedron/Siesta/siesta-dev/_build_serial/Src/siesta
Version         : 5.2.0-15-g8c00451d2
Architecture    : x86_64
Compiler version: GNU-11.4.0
Compiler flags  : -fallow-argument-mismatch -O3 -march=native
Environment variables: 
  SIESTA_PS_PATH: /home/fnpedron/Siesta/siesta-dev/Tests/Pseudos
Parallelisations: none
NetCDF support
NetCDF-4 support
Lua support
DFT-D3 support

Runtime information:
* Directory : /home/fnpedron/Siesta/siesta-dev/_build_serial/Tests/02.SpinPolarization/fe_noncol/work
* Running in serial mode.
>> Start of run:  17-JAN-2025  12:34:59

                           *********************** 
                           *  WELCOME TO SIESTA  * 
                           *********************** 

 NOTE: Siesta V5 introduces some new defaults for basis-set generation
 NOTE: which might lead to slightly different numerical results.
 NOTE: Please see the manual for full details and compatibility measures.


reinit: Reading from file ../../fe_noncol.fdf

reinit: -----------------------------------------------------------------------
reinit: System Name: Linear Fe3 cluster
reinit: -----------------------------------------------------------------------
reinit: System Label: fe_noncol
reinit: -----------------------------------------------------------------------

NOTE on units for spin output: 
{S} is the spin magnetic moment, in units of the Bohr magneton,
assuming a g-factor for the electron spin of exactly 2.
The spin magnetic moment is then numerically equal to the charge inbalance,
in units of electrons, between the spin-up and -down channels.


initatom: Reading input for the pseudopotentials and atomic orbitals ----------
Species number:   1 Atomic number:   26 Label: Fe_nc

Ground state valence configuration (from tables):   4s02  4p00  3d06  4f00

---- Processing specs for species: Fe_nc
Reading pseudopotential information in formatted form from:
  /home/fnpedron/Siesta/siesta-dev/Tests/Pseudos/Fe_nc.psf

---- Pseudopotential check for Fe

Pseudized shells:
4s( 1.00) rc: 2.00
4p( 0.00) rc: 2.00
3d( 7.00) rc: 2.00
4f( 0.00) rc: 2.00
Valence configuration for ps generation: (assumed as above)
For Fe_nc, standard SIESTA heuristics set lmxkb to 3
 (one more than the basis l, including polarization orbitals).
Use PS.lmax or PS.KBprojectors blocks to override.

<basis_specs>
===============================================================================
Fe_nc                Z=  26    Mass=  55.845        Charge= 0.17977+309
Lmxo=2 Lmxkb= 3    BasisType=split      Semic=F
L=0  Nsemic=0  Cnfigmx=4
          i=1  nzeta=1  polorb=1  (4s)  (to be polarized perturbatively)
            splnorm:   0.15000    
               vcte:    40.000    
               rinn:  -0.90000    
               qcoe:    0.0000    
               qyuk:    0.0000    
               qwid:   0.10000E-01
                rcs:    0.0000    
            lambdas:    1.0000    
L=1  Nsemic=0  Cnfigmx=4
          i=1  nzeta=0  polorb=0  (4p)  (perturbative polarization orbital) (from 4s)
L=2  Nsemic=0  Cnfigmx=3
          i=1  nzeta=1  polorb=0  (3d)
            splnorm:   0.15000    
               vcte:    40.000    
               rinn:  -0.90000    
               qcoe:    0.0000    
               qyuk:    0.0000    
               qwid:   0.10000E-01
                rcs:    0.0000    
            lambdas:    1.0000    
-------------------------------------------------------------------------------
L=0  Nkbl=1  erefs: 0.17977+309
L=1  Nkbl=1  erefs: 0.17977+309
L=2  Nkbl=1  erefs: 0.17977+309
L=3  Nkbl=1  erefs: 0.17977+309
===============================================================================
</basis_specs>

Using PAO.SplitTailNorm
atom: Called for Fe_nc                 (Z =  26)
Maximum radius (at nrval) set to   50.00000 8518

read_vps: Pseudopotential generation method:
read_vps: ATM3      Troullier-Martins                       
Valence charge in pseudo generation:    8.00000

read_vps: Pseudopotential includes a core correction:
read_vps: Pseudo-core for xc-correction

xc_check: Exchange-correlation functional:
xc_check: Ceperley-Alder
V l=0 = -2*Zval/r beyond r=  2.8472
V l=1 = -2*Zval/r beyond r=  2.8472
V l=2 = -2*Zval/r beyond r=  2.8472
V l=3 = -2*Zval/r beyond r=  2.8472
All V_l potentials equal beyond r=  1.9894
This should be close to max(r_c) in ps generation
All pots = -2*Zval/r beyond r=  2.8472
Using large-core scheme (fit) for Vlocal

atom: Estimated core radius    2.84716
Fit of Vlocal with continuous 2nd derivative
Fitting vlocal at       1.9954
Choosing vlocal chloc cutoff:  5741  3.100644
qtot up to nchloc:    8.00000259
atom: Maximum radius for chlocal:    3.10064
atom: Maximum radius for r*vlocal+2*Zval:    3.10064

KBgen: Kleinman-Bylander projectors: 
GHOST: No ghost state for L =  0
   l= 0   rc=  1.991366   el= -0.319855   Ekb=  3.826230   kbcos=  0.253712
GHOST: No ghost state for L =  1
   l= 1   rc=  2.019582   el= -0.070931   Ekb=  3.335986   kbcos=  0.155791
GHOST: No ghost state for L =  2
   l= 2   rc=  1.989365   el= -0.307264   Ekb=-12.632066   kbcos= -0.657060
GHOST: No ghost state for L =  3
   l= 3   rc=  2.015527   el=  0.019538   Ekb= -1.701666   kbcos= -0.006384

KBgen: Total number of Kleinman-Bylander projectors:  16
atom: -------------------------------------------------------------------------

atom: SANKEY-TYPE ORBITALS:

SPLIT: Orbitals with angular momentum L= 0

SPLIT: Basis orbitals for state 4s

SPLIT: PAO cut-off radius determined from an
SPLIT: energy shift=  0.010000 Ry
Split based on tail norm

   izeta = 1
                 lambda =    1.000000
                     rc =    7.355669
                 energy =   -0.308198
                kinetic =    0.284874
    potential(screened) =   -0.593072
       potential(ionic) =   -5.763042

SPLIT: Orbitals with angular momentum L= 2

SPLIT: Basis orbitals for state 3d

SPLIT: PAO cut-off radius determined from an
SPLIT: energy shift=  0.010000 Ry
Split based on tail norm

   izeta = 1
                 lambda =    1.000000
                     rc =    4.584362
                 energy =   -0.296412
                kinetic =    8.773647
    potential(screened) =   -9.070058
       potential(ionic) =  -18.006145

POLgen: Perturbative polarization orbital with L=  1

POLgen: Polarization orbital for state 4s
Split based on tail norm

   izeta = 1
                     rc =    7.355669
                 energy =    0.004656
                kinetic =    0.554633
    potential(screened) =   -0.549977
       potential(ionic) =   -5.337881
atom: Total number of Sankey-type orbitals:  9

atm_pop: Valence configuration (for local Pseudopot. screening):
 4s( 2.00)                                                            
 4p( 0.00)                                                            
 3d( 6.00)                                                            
Vna: chval, zval:    8.00000   8.00000

Vna:  Cut-off radius for the neutral-atom potential:   7.355669
comcore: Pseudo-core radius Rcore=  3.839063

atom: _________________________________________________________________________

prinput: Basis input 

PAO.BasisType split     

%block ChemicalSpeciesLabel
    1   26 Fe_nc                   # Species index, atomic number, species label
%endblock ChemicalSpeciesLabel

%block PAO.Basis                 # Define Basis set
# WARNING: This information might be incomplete!
Fe_nc                 2                    # Species label, number of l-shells
 n=4   0   1 P   1                   # n, l, Nzeta, Polarization, NzetaPol
   7.356   
   1.000   
 n=3   2   1                         # n, l, Nzeta 
   4.584   
   1.000   
%endblock PAO.Basis

prinput: ----------------------------------------------------------------------

Dumping basis to NetCDF file Fe_nc.ion.nc
coor:   Atomic-coordinates input format  =     Cartesian coordinates
coor:                                            (in Bohr units)

siesta: Atomic coordinates (Bohr) and species
siesta:      0.00000   0.00000   3.64400  1        1
siesta:      0.00000   0.00000   0.00000  1        2
siesta:      0.00000   0.00000  -3.64400  1        3

siesta: System type = bulk      

initatomlists: Number of atoms, orbitals, and projectors:      3    27    48

siesta: ******************** Simulation parameters ****************************
siesta:
siesta: The following are some of the parameters of the simulation.
siesta: A complete list of the parameters used, including default values,
siesta: can be found in file out.fdf
siesta:
redata: Spin configuration                          = non-collinear
redata: Number of spin components                   = 4
redata: Time-Reversal Symmetry                      = F
redata: Spin spiral                                 = F
redata: Long output                                 =   F
redata: Number of Atomic Species                    =        1
redata: Charge density info will appear in .RHO file
redata: Write Mulliken charges (when)               = geometry+end
redata: Write Mulliken Pop.                         = Atomic and Orbital charges
redata: Write Hirshfeld charges (when)              = none
redata: Write Voronoi charges (when)                = none
redata: Write spin charge (when)                    = scf
redata: Matel table size (NRTAB)                    =     1024
redata: Mesh Cutoff                                 =   100.0000 Ry
redata: Net charge of the system                    =     0.0000 |e|
redata: Min. number of SCF Iter                     =        0
redata: Max. number of SCF Iter                     =       20
redata: SCF mix quantity                            = Hamiltonian
redata: Mix DM or H after convergence               =   F
redata: Recompute H after scf cycle                 =   F
redata: Mix DM in first SCF step                    =   T
redata: Write Pulay info on disk                    =   F
redata: New DM Occupancy tolerance                  = 0.000000000001
redata: No kicks to SCF
redata: DM Mixing Weight for Kicks                  =     0.5000
redata: Require Harris convergence for SCF          =   F
redata: Harris energy tolerance for SCF             =     0.000100 eV
redata: Require DM convergence for SCF              =   T
redata: DM tolerance for SCF                        =     0.000100
redata: Require EDM convergence for SCF             =   F
redata: EDM tolerance for SCF                       =     0.001000 eV
redata: Require H convergence for SCF               =   T
redata: Hamiltonian tolerance for SCF               =     0.001000 eV
redata: Require (free) Energy convergence for SCF   =   F
redata: (free) Energy tolerance for SCF             =     0.000100 eV
redata: Using DFT-D3 dispersion                     =   F
redata: Using Saved Data (generic)                  =   F
redata: Use continuation files for DM               =   T
redata: Neglect nonoverlap interactions             =   F
redata: Method of Calculation                       = Diagonalization
redata: Electronic Temperature                      =   300.0000 K
redata: Fix the spin of the system                  =   F
redata: Max. number of TDED Iter                    =        1
redata: Number of TDED substeps                     =        3
redata: Dynamics option                             = Single-point calculation
mix.SCF: Pulay mixing                            = Pulay
mix.SCF:    Variant                              = stable
mix.SCF:    History steps                        = 8
mix.SCF:    Linear mixing weight                 =     0.010000
mix.SCF:    Mixing weight                        =     0.010000
mix.SCF:    SVD condition                        = 0.1000E-07
mix.SCF: Spin-component mixing                   all
redata: Save all siesta data in one NC              =   F
redata: ***********************************************************************

%block SCF.Mixers
  Pulay
%endblock SCF.Mixers

%block SCF.Mixer.Pulay
  # Mixing method
  method pulay
  variant stable

  # Mixing options
  weight 0.0100
  weight.linear 0.0100
  history 8
%endblock SCF.Mixer.Pulay

DM_history_depth set to one: no extrapolation allowed by default for geometry relaxation
Size of DM history Fstack: 1
Total number of electrons:    24.000000
Total ionic charge:    24.000000

siesta: k-grid: Number of k-points = 1
siesta: k-point is Gamma-only

diag: Algorithm                                     = D&C
diag: Used triangular part                          = Lower
diag: Absolute tolerance                            =  0.100E-15
diag: Orthogonalization factor                      =  0.100E-05
diag: Memory factor                                 =  1.0000


ts: **************************************************************
ts: Save H and S matrices                           =    F
ts: Save DM and EDM matrices                        =    F
ts: Only save the overlap matrix S                  =    F
ts: **************************************************************

************************ Begin: TS CHECKS AND WARNINGS ************************
************************ End: TS CHECKS AND WARNINGS **************************


                     ====================================
                        Single-point calculation
                     ====================================

outcell: Unit cell vectors (Ang):
        6.350127    0.000000    0.000000
        0.000000    6.350127    0.000000
        0.000000    0.000000   10.583544

outcell: Cell vector modules (Ang)   :    6.350127    6.350127   10.583544
outcell: Cell angles (23,13,12) (deg):     90.0000     90.0000     90.0000
outcell: Cell volume (Ang**3)        :    426.7720
Gamma-point calculation with interaction between periodic images
Some features might not work optimally:
e.g. DM initialization from atomic data
<dSpData1D:S at geom step 0
  <sparsity:sparsity for geom step 0
    nrows_g=27 nrows=27 sparsity=1.0000 nnzs=729, refcount: 7>
  <dData1D:(new from dSpData1D) n=729, refcount: 1>
refcount: 1>
new_DM -- step:     1
Initializing Density Matrix...

Attempting to read DM from file... Failed...
DM filled with atomic data (user-defined):
<dSpData2D:DM initialized from atoms
  <sparsity:sparsity for geom step 0
    nrows_g=27 nrows=27 sparsity=1.0000 nnzs=729, refcount: 8>
  <dData2D:DM n=729 m=4, refcount: 1>
refcount: 1>
No. of atoms with KB's overlaping orbs in proc 0. Max # of overlaps:       3      27

InitMesh: MESH = 40 x 40 x 64 = 102400
InitMesh: Mesh cutoff (required, used) =   100.000   101.065 Ry
New grid distribution [1]: sub = 2

stepf: Fermi-Dirac step function

siesta: Program's energy decomposition (eV):
siesta: Ebs     =       233.279438
siesta: Eions   =      2102.576618
siesta: Ena     =        92.089899
siesta: Ekin    =      2810.330756
siesta: Enl     =     -1815.542659
siesta: Eso     =         0.000000
siesta: Edftu   =         0.000000
siesta: DEna    =      -116.972330
siesta: DUscf   =        55.352304
siesta: DUext   =         0.000000
siesta: Ex      =     -1117.194981
siesta: Ec      =       -97.946905
siesta: Exc     =     -1215.141886
siesta: EbV     =         0.000000
siesta: eta*DQ  =         0.000000
siesta: Emadel  =         0.000000
siesta: Emeta   =         0.000000
siesta: Emolmec =         0.000000
siesta: Ekinion =         0.000000
siesta: Eharris =     -2221.689819
siesta: Etot    =     -2292.460534
siesta: FreeEng =     -2292.550284

        iscf     Eharris(eV)        E_KS(eV)     FreeEng(eV)     dDmax    Ef(eV) dHmax(eV)
   scf:    1    -2221.689819    -2292.460534    -2292.550284  0.991479 -9.391968 34.591538
     spin moment: {S} , |S| = {    1.65778    0.00000   -0.00000 }     1.65778
timer: Routine,Calls,Time,% = IterSCF        1       0.044  12.44
   scf:    2    -2300.325961    -2296.611562    -2296.694311  0.100065 -9.244199 31.530856
     spin moment: {S} , |S| = {    1.52213    0.00000    0.00000 }     1.52213
   scf:    3    -2280.999725    -2302.339578    -2302.406553  0.337809 -7.765995 21.240516
     spin moment: {S} , |S| = {    2.89260    0.00000   -0.00000 }     2.89260
   scf:    4    -2154.732876    -2271.878705    -2271.896693  0.831698 -7.719763 43.883689
     spin moment: {S} , |S| = {    1.16831    0.00000    0.00000 }     1.16831
   scf:    5    -2337.158561    -2314.712355    -2314.712355  0.558490 -3.281143 14.316484
     spin moment: {S} , |S| = {    0.93878    0.00000   -0.00000 }     0.93878
   scf:    6    -2285.749167    -2320.797174    -2320.798079  0.338483 -3.710509 14.533828
     spin moment: {S} , |S| = {    1.68713    0.00000   -0.00000 }     1.68713
   scf:    7    -2326.771683    -2323.981015    -2323.981714  0.033982 -3.902000 11.355204
     spin moment: {S} , |S| = {    1.66691    0.00000   -0.00000 }     1.66691
   scf:    8    -2313.913920    -2325.604083    -2325.604088  0.206211 -2.438211  7.381305
     spin moment: {S} , |S| = {    1.22956    0.00000   -0.00000 }     1.22956
   scf:    9    -2299.059171    -2314.400137    -2314.400137  0.089428 -1.989136 12.243788
     spin moment: {S} , |S| = {    0.99308    0.00000   -0.00000 }     0.99308
   scf:   10    -2314.794890    -2314.636190    -2314.636190  0.031660 -2.588165 12.762658
     spin moment: {S} , |S| = {    0.95900    0.00000   -0.00000 }     0.95900
   scf:   11    -2320.261829    -2317.531496    -2317.531496  0.018660 -2.699525 11.232175
     spin moment: {S} , |S| = {    0.98487    0.00000    0.00000 }     0.98487
   scf:   12    -2316.426126    -2323.889609    -2323.915631  0.546302 -4.894099  9.761656
     spin moment: {S} , |S| = {    1.30693    0.00000    0.00000 }     1.30693
   scf:   13    -2321.978133    -2323.610806    -2323.618890  0.077135 -5.088832  9.260803
     spin moment: {S} , |S| = {    1.54641    0.00000    0.00000 }     1.54641
   scf:   14    -2323.920112    -2323.779972    -2323.789194  0.009183 -5.074197  8.941314
     spin moment: {S} , |S| = {    1.51293    0.00000   -0.00000 }     1.51293
   scf:   15    -2298.449350    -2319.492204    -2319.493687  0.611126 -4.475231 13.793989
     spin moment: {S} , |S| = {    0.83195    0.00000   -0.00000 }     0.83195
   scf:   16    -2284.050580    -2318.537828    -2318.539505  0.715291 -5.340136 12.695814
     spin moment: {S} , |S| = {    1.84288    0.00000    0.00000 }     1.84288
   scf:   17    -2327.294526    -2326.482759    -2326.546932  0.284463 -4.801560  6.246403
     spin moment: {S} , |S| = {    1.11805    0.00000   -0.00000 }     1.11805
   scf:   18    -2328.535806    -2327.593571    -2327.664603  0.071797 -4.758354  4.432484
     spin moment: {S} , |S| = {    1.16207    0.00000    0.00000 }     1.16207
   scf:   19    -2327.438296    -2328.443094    -2328.443220  0.246996 -4.253233  2.600742
     spin moment: {S} , |S| = {    1.38839    0.00000   -0.00000 }     1.38839
   scf:   20    -2328.649111    -2328.551254    -2328.551351  0.006949 -4.170511  2.571869
     spin moment: {S} , |S| = {    1.41686    0.00000   -0.00000 }     1.41686
SCF_NOT_CONV: SCF did not converge  in maximum number of steps.
Geom step, scf iteration, dDmax, dHmax:    0    20      0.006949     0.189029

Using DM_out to compute the final energy and forces
No. of atoms with KB's overlaping orbs in proc 0. Max # of overlaps:       3      27

siesta: E_KS(eV) =            -2328.5513

siesta: E_KS - E_eggbox =     -2328.5513

siesta: Atomic forces (eV/Ang):
----------------------------------------
   Tot   -0.000000   -0.000000    0.000000
----------------------------------------
   Max    1.695499
   Res    0.799266    sqrt( Sum f_i^2 / 3N )
----------------------------------------
   Max    1.695499    constrained

Stress tensor Voigt[x,y,z,yz,xz,xy] (kbar):        4.14        4.14       -6.45        0.00        0.00       -0.00
(Free)E + p*V (eV/cell)    -2328.7136
Target enthalpy (eV/cell)    -2328.5514

mulliken: Atomic and Orbital Populations:

Species: Fe_nc               

Atom      Orb        Charge      Spin       Svec
----------------------------------------------------------------
    1  1 4s         1.38379   0.07406     -0.015   0.000   0.072
    1  2 3dxy       1.23174   0.76187      0.063   0.000   0.759
    1  3 3dyz       1.29365   0.51026     -0.006   0.000   0.510
    1  4 3dz2       1.36360   0.49164      0.003   0.000   0.492
    1  5 3dxz       1.29365   0.51026     -0.006   0.000   0.510
    1  6 3dx2-y2    1.23129   0.76235      0.063   0.000   0.760
    1  7 4Ppy       0.02014   0.00270      0.000   0.000  -0.003
    1  8 4Ppz       0.02370   0.01180      0.003   0.000   0.011
    1  9 4Ppx       0.02014   0.00270      0.000   0.000  -0.003
    1     Total     7.86170   3.11134      0.103   0.000   3.110

    2  1 4s         0.98770   0.03082      0.031   0.000   0.000
    2  2 3dxy       1.53652   0.36588      0.366   0.000   0.000
    2  3 3dyz       1.26961   0.14152      0.142   0.000   0.000
    2  4 3dz2       1.25531   0.13768      0.138   0.000   0.000
    2  5 3dxz       1.26961   0.14152      0.142   0.000   0.000
    2  6 3dx2-y2    1.53743   0.36519      0.365   0.000   0.000
    2  7 4Ppy       0.10282   0.01043      0.010   0.000  -0.000
    2  8 4Ppz       0.21479   0.00673      0.007   0.000   0.000
    2  9 4Ppx       0.10282   0.01043      0.010   0.000  -0.000
    2     Total     8.27659   1.21019      1.210   0.000   0.000

    3  1 4s         1.38379   0.07406     -0.015   0.000  -0.072
    3  2 3dxy       1.23174   0.76187      0.063   0.000  -0.759
    3  3 3dyz       1.29365   0.51026     -0.006   0.000  -0.510
    3  4 3dz2       1.36360   0.49164      0.003   0.000  -0.492
    3  5 3dxz       1.29365   0.51026     -0.006   0.000  -0.510
    3  6 3dx2-y2    1.23129   0.76235      0.063   0.000  -0.760
    3  7 4Ppy       0.02014   0.00270      0.000   0.000   0.003
    3  8 4Ppz       0.02370   0.01180      0.003   0.000  -0.011
    3  9 4Ppx       0.02014   0.00270      0.000   0.000   0.003
    3     Total     7.86170   3.11134      0.103   0.000  -3.110

----------------------------------------------------------------
Total              24.00000   1.41686      1.417   0.000  -0.000


Mulliken Atomic Populations:
Atom #   charge [q] valence [e]           S      Sx [e]      Sy [e]      Sz [e]  Species
     1     0.138297    7.861703    3.111340    0.103332    0.000000    3.109623  Fe_nc
     2    -0.276594    8.276594    1.210194    1.210194    0.000000    0.000000  Fe_nc
     3     0.138297    7.861703    3.111340    0.103332    0.000000   -3.109623  Fe_nc
-------------------------------------------------------------------------------
 Total    -0.000000                1.416858    1.416858    0.000000   -0.000000

siesta: Program's energy decomposition (eV):
siesta: Ebs     =      -170.675702
siesta: Eions   =      2102.576618
siesta: Ena     =        92.089899
siesta: Ekin    =      2289.091056
siesta: Enl     =     -1445.584873
siesta: Eso     =         0.000000
siesta: Edftu   =         0.000000
siesta: DEna    =       -26.058266
siesta: DUscf   =         3.150770
siesta: DUext   =         0.000000
siesta: Ex      =     -1044.547148
siesta: Ec      =       -94.116075
siesta: Exc     =     -1138.663223
siesta: EbV     =         0.000000
siesta: eta*DQ  =         0.000000
siesta: Emadel  =         0.000000
siesta: Emeta   =         0.000000
siesta: Emolmec =         0.000000
siesta: Ekinion =         0.000000
siesta: Eharris =     -2328.649111
siesta: Etot    =     -2328.551254
siesta: FreeEng =     -2328.551351

siesta: Final energy (eV):
siesta:  Band Struct. =    -170.675702
siesta:       Kinetic =    2289.091056
siesta:       Hartree =    1377.363428
siesta:         Edftu =       0.000000
siesta:       Eso     =       0.000000
siesta:    Ext. field =       0.000000
siesta:         Exch. =   -1044.547148
siesta:         Corr. =     -94.116075
siesta:     Bulk bias =       0.000000
siesta:   Exch.-corr. =   -1138.663223
siesta:  Ion-electron =   -4664.655136
siesta:       Ion-ion =    -191.687379
siesta:       Ekinion =       0.000000
siesta: D3 dispersion =       0.000000
siesta:         Total =   -2328.551254
siesta:         Fermi =      -4.170511

siesta: Atomic forces (eV/Ang):
siesta:      1    0.000000   -0.000000    1.695499
siesta:      2    0.000000    0.000000   -0.000000
siesta:      3   -0.000000   -0.000000   -1.695499
siesta: ----------------------------------------
siesta:    Tot   -0.000000   -0.000000    0.000000

siesta: Stress tensor (static) (eV/Ang**3):
siesta:     0.002583   -0.000000   -0.000000
siesta:    -0.000000    0.002583    0.000000
siesta:     0.000000    0.000000   -0.004026

siesta: Cell volume =        426.771969 Ang**3

siesta: Pressure (static):
siesta:                Solid            Molecule  Units
siesta:          -0.00000414         -0.00005977  Ry/Bohr**3
siesta:          -0.00038011         -0.00548739  eV/Ang**3
siesta:          -0.60899667         -8.79176581  kBar
(Free)E+ p_basis*V_orbitals  =       -2326.477146
(Free)Eharris+ p_basis*V_orbitals  =       -2326.575004

mulliken: Atomic and Orbital Populations:

Species: Fe_nc               

Atom      Orb        Charge      Spin       Svec
----------------------------------------------------------------
    1  1 4s         1.38379   0.07406     -0.015   0.000   0.072
    1  2 3dxy       1.23174   0.76187      0.063   0.000   0.759
    1  3 3dyz       1.29365   0.51026     -0.006   0.000   0.510
    1  4 3dz2       1.36360   0.49164      0.003   0.000   0.492
    1  5 3dxz       1.29365   0.51026     -0.006   0.000   0.510
    1  6 3dx2-y2    1.23129   0.76235      0.063   0.000   0.760
    1  7 4Ppy       0.02014   0.00270      0.000   0.000  -0.003
    1  8 4Ppz       0.02370   0.01180      0.003   0.000   0.011
    1  9 4Ppx       0.02014   0.00270      0.000   0.000  -0.003
    1     Total     7.86170   3.11134      0.103   0.000   3.110

    2  1 4s         0.98770   0.03082      0.031   0.000   0.000
    2  2 3dxy       1.53652   0.36588      0.366   0.000   0.000
    2  3 3dyz       1.26961   0.14152      0.142   0.000   0.000
    2  4 3dz2       1.25531   0.13768      0.138   0.000   0.000
    2  5 3dxz       1.26961   0.14152      0.142   0.000   0.000
    2  6 3dx2-y2    1.53743   0.36519      0.365   0.000   0.000
    2  7 4Ppy       0.10282   0.01043      0.010   0.000  -0.000
    2  8 4Ppz       0.21479   0.00673      0.007   0.000   0.000
    2  9 4Ppx       0.10282   0.01043      0.010   0.000  -0.000
    2     Total     8.27659   1.21019      1.210   0.000   0.000

    3  1 4s         1.38379   0.07406     -0.015   0.000  -0.072
    3  2 3dxy       1.23174   0.76187      0.063   0.000  -0.759
    3  3 3dyz       1.29365   0.51026     -0.006   0.000  -0.510
    3  4 3dz2       1.36360   0.49164      0.003   0.000  -0.492
    3  5 3dxz       1.29365   0.51026     -0.006   0.000  -0.510
    3  6 3dx2-y2    1.23129   0.76235      0.063   0.000  -0.760
    3  7 4Ppy       0.02014   0.00270      0.000   0.000   0.003
    3  8 4Ppz       0.02370   0.01180      0.003   0.000  -0.011
    3  9 4Ppx       0.02014   0.00270      0.000   0.000   0.003
    3     Total     7.86170   3.11134      0.103   0.000  -3.110

----------------------------------------------------------------
Total              24.00000   1.41686      1.417   0.000  -0.000


Mulliken Atomic Populations:
Atom #   charge [q] valence [e]           S      Sx [e]      Sy [e]      Sz [e]  Species
     1     0.138297    7.861703    3.111340    0.103332    0.000000    3.109623  Fe_nc
     2    -0.276594    8.276594    1.210194    1.210194    0.000000    0.000000  Fe_nc
     3     0.138297    7.861703    3.111340    0.103332    0.000000   -3.109623  Fe_nc
-------------------------------------------------------------------------------
 Total    -0.000000                1.416858    1.416858    0.000000   -0.000000

cite: Please see "fe_noncol.bib" for an exhaustive BiBTeX file.
cite: Please clearly indicate Siesta version in published work: 5.2.0-15-g8c00451d2
cite: This calculation has made use of the following articles
cite: which are encouraged to be cited in a published work.
        Primary SIESTA paper
          DOI: www.doi.org/10.1088/0953-8984/14/11/302


timer: Elapsed wall time (sec) =       1.281
timer: CPU execution times (sec):

Routine            Calls   Time/call    Tot.time        %
siesta                 1       1.274       1.274   100.00
Setup                  1       0.039       0.039     3.04
bands                  1       0.000       0.000     0.00
KSV_init               1       0.000       0.000     0.00
IterGeom               1       1.235       1.235    96.92
geom_init              1       0.268       0.268    21.05
state_init             1       0.024       0.024     1.88
hsparse                1       0.000       0.000     0.01
overlap                1       0.024       0.024     1.85
Setup_H0               1       0.201       0.201    15.78
naefs                  2       0.000       0.000     0.01
dnaefs                 2       0.000       0.000     0.00
MolMec                 2       0.000       0.000     0.00
kinefsm                2       0.011       0.023     1.77
nlefsm                 2       0.066       0.131    10.29
DHSCF_Init             1       0.048       0.048     3.79
DHSCF1                 1       0.006       0.006     0.45
InitMesh               1       0.006       0.006     0.45
INITMESH               1       0.000       0.000     0.00
DHSCF2                 1       0.042       0.042     3.33
REMESH                 1       0.003       0.003     0.25
REORD                196       0.000       0.017     1.34
PHION                  1       0.030       0.030     2.34
COMM_BSC             358       0.000       0.025     1.98
POISON                23       0.002       0.050     3.89
fft                   46       0.001       0.037     2.92
setup_H               21       0.041       0.865    67.85
DHSCF                 22       0.045       0.983    77.11
DHSCF3                22       0.041       0.902    70.80
rhoofd                22       0.011       0.238    18.67
XC                    22       0.015       0.339    26.64
GXC-CellXC            22       0.014       0.301    23.58
gridxc@cellXC         22       0.014       0.300    23.57
vmat                  22       0.009       0.200    15.68
IterSCF               20       0.042       0.843    66.15
compute_dm            20       0.001       0.017     1.34
diagon                20       0.001       0.017     1.33
cdiag                 20       0.001       0.014     1.07
cdiag1                20       0.000       0.001     0.11
cdiag2                20       0.000       0.002     0.14
cdiag3                20       0.000       0.009     0.67
cdiag4                20       0.000       0.001     0.12
MIXER                 20       0.000       0.002     0.13
PostSCF                1       0.123       0.123     9.68
FINAL_HF               1       0.123       0.123     9.68
DHSCF4                 1       0.080       0.080     6.30
dfscf                  1       0.071       0.071     5.54
overfsm                1       0.000       0.000     0.02
state_analysis         1       0.000       0.000     0.02
siesta_move            1       0.000       0.000     0.00
Analysis               1       0.000       0.000     0.02
optical                1       0.000       0.000     0.00
  

>> End of run:  17-JAN-2025  12:35:01
Job completed
