Executable      : /home/fnpedron/Siesta/siesta-qmmm/_siesta_bin/bin/siesta
Version         : 5.0.0-alpha-245-g39f7491dd-dirty
Architecture    : x86_64
Compiler version: GNU-11.4.0
Compiler flags  : -fallow-argument-mismatch -O3 -march=native
Environment variables: 
  SIESTA_PS_PATH: /home/fnpedron/Siesta/siesta-qmmm/Tests/Pseudos
Parallelisations: MPI
NetCDF support
NetCDF-4 support
Lua support
DFT-D3 support

Runtime information:
* Directory : /home/fnpedron/Siesta/siesta-qmmm/Util/QMMM-driver/Tests/LinkAtom-DiBenzene/work
* Running on 4 nodes in parallel.
>> Start of run:  28-AUG-2024  12:34:15

                           *********************** 
                           *  WELCOME TO SIESTA  * 
                           *********************** 

 NOTE: Siesta V5 introduces some new defaults for basis-set generation
 NOTE: which might lead to slightly different numerical results.
 NOTE: Please see the manual for full details and compatibility measures.


reinit: Reading from standard input
reinit: Dumping input in INPUT_TMP.19847
************************** Dump of input data file ****************************
SystemName  linkatom.siesta
SystemLabel  linkatom.siesta
# Global system
NetCharge 0.0
# DFT Options
XC.functional        LDA
MeshCutoff           50 Ry
MaxSCFIterations     300
DM.MixingWeight      0.15
DM.NumberPulay       6
DM.Tolerance         1.d-4
# MD Options
MD.TypeOfRun         qmmm
MD.NumCGsteps        4
MD.VariableCell      F
MD.MaxForceTol       0.01 eV/Ang
# Output Options
WriteCoordinates   10
WriteForces        T
WriteCoorStep      T
WriteMDHistory     T
WriteCoorXmol      T
WriteDenchar       T
# QM Region
NumberOfAtoms    12
NumberOfSpecies   2
%block ChemicalSpeciesLabel
 1   1  H
 2   6  C
%endblock ChemicalSpeciesLabel
AtomicCoordinatesFormat  Ang
%block AtomicCoordinatesAndAtomicSpecies
   13.668   0.203   4.416   2
    0.022   0.885   4.416   2
    1.241   0.174   4.416   2
   13.686  14.361   4.416   2
    0.031  13.655   4.416   2
    1.297  14.313   4.416   2
   12.711   0.759   4.416   1
   12.736  13.792   4.416   1
   14.805  12.555   4.416   1
    0.045   1.992   4.416   1
    2.146   0.809   4.416   1
    2.261  13.752   4.416   1
%endblock AtomicCoordinatesAndAtomicSpecies
## MM Region
QMMM.Enabled T
QMMM.Driver SIESTA_DRIVER
QMMM.Driver.Type pipe
QMMM.Driver.QMRegionFile linkatom.siesta.coords
QMMM.Driver.MMChargeFile linkatom.siesta.pc
QMMM.Driver.ForceOutFile linkatom.siesta.forces
QMMM.Cutoff          10.0000000 Ang
QMMM.DensityCut       0.0000010 Ang
QMMM.CoulombType 2
WriteXML .false.
************************** End of input data file *****************************

reinit: -----------------------------------------------------------------------
reinit: System Name: linkatom.siesta
reinit: -----------------------------------------------------------------------
reinit: System Label: linkatom.siesta
reinit: -----------------------------------------------------------------------

initatom: Reading input for the pseudopotentials and atomic orbitals ----------
Species number:   1 Atomic number:    1 Label: H
Species number:   2 Atomic number:    6 Label: C

Ground state valence configuration (from tables):   1s01  2p00  3d00  4f00
Ground state valence configuration (from tables):   2s02  2p02  3d00  4f00

---- Processing specs for species: H
Reading pseudopotential information in formatted form from:
  /home/fnpedron/Siesta/siesta-qmmm/Tests/Pseudos/H.psf

---- Processing specs for species: C
Reading pseudopotential information in formatted form from:
  /home/fnpedron/Siesta/siesta-qmmm/Tests/Pseudos/C.psf

---- Pseudopotential check for H 

Pseudized shells:
1s( 1.00) rc: 1.25
2p( 0.00) rc: 1.25
3d( 0.00) rc: 1.25
4f( 0.00) rc: 1.25
Valence configuration for ps generation: (assumed as above)

---- Pseudopotential check for C 

Pseudized shells:
2s( 2.00) rc: 1.49
2p( 2.00) rc: 1.52
3d( 0.00) rc: 1.58
Valence configuration for ps generation: (assumed as above)
For H, standard SIESTA heuristics set lmxkb to 2
 (one more than the basis l, including polarization orbitals).
Use PS.lmax or PS.KBprojectors blocks to override.
For C, standard SIESTA heuristics set lmxkb to 3
 (one more than the basis l, including polarization orbitals).
Use PS.lmax or PS.KBprojectors blocks to override.
C pseudopotential only contains V_ls up to l=2 -- lmxkb reset.

<basis_specs>
===============================================================================
H                    Z=   1    Mass=  1.0080        Charge= 0.17977+309
Lmxo=1 Lmxkb= 2    BasisType=split      Semic=F
L=0  Nsemic=0  Cnfigmx=1
          i=1  nzeta=2  polorb=1  (1s)  (to be polarized perturbatively)
            splnorm:   0.15000    
               vcte:    40.000    
               rinn:  -0.90000    
               qcoe:    0.0000    
               qyuk:    0.0000    
               qwid:   0.10000E-01
                rcs:    0.0000      0.0000    
            lambdas:    1.0000      1.0000    
L=1  Nsemic=0  Cnfigmx=2
          i=1  nzeta=0  polorb=0  (2p)  (perturbative polarization orbital) (from 1s)
-------------------------------------------------------------------------------
L=0  Nkbl=1  erefs: 0.17977+309
L=1  Nkbl=1  erefs: 0.17977+309
L=2  Nkbl=1  erefs: 0.17977+309
===============================================================================
</basis_specs>

Using PAO.SplitTailNorm
atom: Called for H                     (Z =   1)
Maximum radius (at nrval) set to   50.00000 8518

read_vps: Pseudopotential generation method:
read_vps: ATM3      Troullier-Martins                       
Valence charge in pseudo generation:    1.00000

xc_check: Exchange-correlation functional:
xc_check: Ceperley-Alder
V l=0 = -2*Zval/r beyond r=  1.2384
V l=1 = -2*Zval/r beyond r=  1.2321
V l=2 = -2*Zval/r beyond r=  1.2272
All V_l potentials equal beyond r=  1.2371
This should be close to max(r_c) in ps generation
All pots = -2*Zval/r beyond r=  1.2384
Using small-core scheme (local charge) for Vlocal

VLOCAL_FROM_CHLOCAL: 99.0% of the norm of Vloc inside     28.363 Ry
VLOCAL_FROM_CHLOCAL: 99.9% of the norm of Vloc inside     64.639 Ry
atom: Maximum radius for chlocal:    1.44620
atom: Maximum radius for r*vlocal+2*Zval:    1.31026

KBgen: Kleinman-Bylander projectors: 
GHOST: No ghost state for L =  0
   l= 0   rc=  1.364142   el= -0.467325   Ekb= -2.009475   kbcos= -0.336680
GHOST: No ghost state for L =  1
   l= 1   rc=  1.430269   el=  0.007562   Ekb= -0.503817   kbcos= -0.022554
GHOST: No ghost state for L =  2
   l= 2   rc=  1.469686   el=  0.013286   Ekb= -0.191752   kbcos= -0.002430

KBgen: Total number of Kleinman-Bylander projectors:   9
atom: -------------------------------------------------------------------------

atom: SANKEY-TYPE ORBITALS:
atom: Selected multiple-zeta basis: split     

SPLIT: Orbitals with angular momentum L= 0

SPLIT: Basis orbitals for state 1s

SPLIT: PAO cut-off radius determined from an
SPLIT: energy shift=  0.010000 Ry
Split based on tail norm

   izeta = 1
                 lambda =    1.000000
                     rc =    5.285354
                 energy =   -0.456120
                kinetic =    0.900445
    potential(screened) =   -1.356565
       potential(ionic) =   -1.890080

   izeta = 2
                 rmatch =    3.582433
              splitnorm =    0.150000
                 energy =   -0.289774
                kinetic =    1.649095
    potential(screened) =   -1.938868
       potential(ionic) =   -2.516427

POLgen: Perturbative polarization orbital with L=  1

POLgen: Polarization orbital for state 1s
Split based on tail norm

   izeta = 1
                     rc =    5.285354
                 energy =    0.642323
                kinetic =    1.282472
    potential(screened) =   -0.640149
       potential(ionic) =   -1.117275
atom: Total number of Sankey-type orbitals:  5

atm_pop: Valence configuration (for local Pseudopot. screening):
 1s( 1.00)                                                            
 2p( 0.00)                                                            
Vna: chval, zval:    1.00000   1.00000

Vna:  Cut-off radius for the neutral-atom potential:   5.285354

atom: _________________________________________________________________________

<basis_specs>
===============================================================================
C                    Z=   6    Mass=  12.011        Charge= 0.17977+309
Lmxo=2 Lmxkb= 2    BasisType=split      Semic=F
L=0  Nsemic=0  Cnfigmx=2
          i=1  nzeta=2  polorb=0  (2s)
            splnorm:   0.15000    
               vcte:    40.000    
               rinn:  -0.90000    
               qcoe:    0.0000    
               qyuk:    0.0000    
               qwid:   0.10000E-01
                rcs:    0.0000      0.0000    
            lambdas:    1.0000      1.0000    
L=1  Nsemic=0  Cnfigmx=2
          i=1  nzeta=2  polorb=1  (2p)  (to be polarized perturbatively)
            splnorm:   0.15000    
               vcte:    40.000    
               rinn:  -0.90000    
               qcoe:    0.0000    
               qyuk:    0.0000    
               qwid:   0.10000E-01
                rcs:    0.0000      0.0000    
            lambdas:    1.0000      1.0000    
L=2  Nsemic=0  Cnfigmx=3
          i=1  nzeta=0  polorb=0  (3d)  (perturbative polarization orbital) (from 2p)
-------------------------------------------------------------------------------
L=0  Nkbl=1  erefs: 0.17977+309
L=1  Nkbl=1  erefs: 0.17977+309
L=2  Nkbl=1  erefs: 0.17977+309
===============================================================================
</basis_specs>

Using PAO.SplitTailNorm
atom: Called for C                     (Z =   6)
Maximum radius (at nrval) set to   50.00000 8518

read_vps: Pseudopotential generation method:
read_vps: ATM3      Troullier-Martins                       
Valence charge in pseudo generation:    4.00000

xc_check: Exchange-correlation functional:
xc_check: Ceperley-Alder
V l=0 = -2*Zval/r beyond r=  1.4801
V l=1 = -2*Zval/r beyond r=  1.5087
V l=2 = -2*Zval/r beyond r=  1.5628
All V_l potentials equal beyond r=  1.5612
This should be close to max(r_c) in ps generation
All pots = -2*Zval/r beyond r=  1.5628
Using small-core scheme (local charge) for Vlocal

VLOCAL_FROM_CHLOCAL: 99.0% of the norm of Vloc inside     17.810 Ry
VLOCAL_FROM_CHLOCAL: 99.9% of the norm of Vloc inside     40.589 Ry
atom: Maximum radius for chlocal:    1.86354
atom: Maximum radius for r*vlocal+2*Zval:    1.70915

KBgen: Kleinman-Bylander projectors: 
GHOST: No ghost state for L =  0
   l= 0   rc=  1.745634   el= -1.001947   Ekb=  5.181804   kbcos=  0.300616
GHOST: No ghost state for L =  1
   l= 1   rc=  1.745634   el= -0.398598   Ekb= -4.328614   kbcos= -0.367151
GHOST: No ghost state for L =  2
   l= 2   rc=  1.934160   el=  0.013259   Ekb= -1.016084   kbcos= -0.010830

KBgen: Total number of Kleinman-Bylander projectors:   9
atom: -------------------------------------------------------------------------

atom: SANKEY-TYPE ORBITALS:
atom: Selected multiple-zeta basis: split     

SPLIT: Orbitals with angular momentum L= 0

SPLIT: Basis orbitals for state 2s

SPLIT: PAO cut-off radius determined from an
SPLIT: energy shift=  0.010000 Ry
Split based on tail norm

   izeta = 1
                 lambda =    1.000000
                     rc =    4.511437
                 energy =   -0.990638
                kinetic =    0.865864
    potential(screened) =   -1.856502
       potential(ionic) =   -5.451831

   izeta = 2
                 rmatch =    3.075858
              splitnorm =    0.150000
                 energy =   -0.731653
                kinetic =    1.534821
    potential(screened) =   -2.266474
       potential(ionic) =   -6.182035

SPLIT: Orbitals with angular momentum L= 1

SPLIT: Basis orbitals for state 2p

SPLIT: PAO cut-off radius determined from an
SPLIT: energy shift=  0.010000 Ry
Split based on tail norm

   izeta = 1
                 lambda =    1.000000
                     rc =    5.413980
                 energy =   -0.387425
                kinetic =    2.474707
    potential(screened) =   -2.862132
       potential(ionic) =   -6.338849

   izeta = 2
                 rmatch =    3.684443
              splitnorm =    0.150000
                 energy =   -0.256025
                kinetic =    3.606747
    potential(screened) =   -3.862772
       potential(ionic) =   -7.705189

POLgen: Perturbative polarization orbital with L=  2

POLgen: Polarization orbital for state 2p
Split based on tail norm

   izeta = 1
                     rc =    5.413980
                 energy =    1.162038
                kinetic =    2.346976
    potential(screened) =   -1.184938
       potential(ionic) =   -4.045028
atom: Total number of Sankey-type orbitals: 13

atm_pop: Valence configuration (for local Pseudopot. screening):
 2s( 2.00)                                                            
 2p( 2.00)                                                            
 3d( 0.00)                                                            
Vna: chval, zval:    4.00000   4.00000

Vna:  Cut-off radius for the neutral-atom potential:   5.413980

atom: _________________________________________________________________________

prinput: Basis input 

PAO.BasisType split     

%block ChemicalSpeciesLabel
    1    1 H                       # Species index, atomic number, species label
    2    6 C                       # Species index, atomic number, species label
%endblock ChemicalSpeciesLabel

%block PAO.Basis                 # Define Basis set
# WARNING: This information might be incomplete!
H                     1                    # Species label, number of l-shells
 n=1   0   2 P   1                   # n, l, Nzeta, Polarization, NzetaPol
   5.285      3.582   
   1.000      1.000   
C                     2                    # Species label, number of l-shells
 n=2   0   2                         # n, l, Nzeta 
   4.511      3.076   
   1.000      1.000   
 n=2   1   2 P   1                   # n, l, Nzeta, Polarization, NzetaPol
   5.414      3.684   
   1.000      1.000   
%endblock PAO.Basis

prinput: ----------------------------------------------------------------------

Dumping basis to NetCDF file H.ion.nc
Dumping basis to NetCDF file C.ion.nc
coor:   Atomic-coordinates input format  =     Cartesian coordinates
coor:                                          (in Angstroms)

siesta: Atomic coordinates (Bohr) and species
siesta:     25.82878   0.38361   8.34503  2        1
siesta:      0.04157   1.67241   8.34503  2        2
siesta:      2.34515   0.32881   8.34503  2        3
siesta:     25.86279  27.13836   8.34503  2        4
siesta:      0.05858  25.80421   8.34503  2        5
siesta:      2.45097  27.04765   8.34503  2        6
siesta:     24.02031   1.43430   8.34503  1        7
siesta:     24.06755  26.06310   8.34503  1        8
siesta:     27.97740  23.72551   8.34503  1        9
siesta:      0.08504   3.76433   8.34503  1       10
siesta:      4.05535   1.52879   8.34503  1       11
siesta:      4.27267  25.98751   8.34503  1       12

siesta: Automatic unit cell vectors (Ang):
siesta:   22.489328    0.000000    0.000000
siesta:    0.000000   21.908600    0.000000
siesta:    0.000000    0.000000    6.302900

siesta: System type = molecule  

initatomlists: Number of atoms, orbitals, and projectors:     12   108   108

coxmol: Writing XMOL coordinates into file linkatom.siesta.xyz                                                                                                                                                                                                                 

siesta: ******************** Simulation parameters ****************************
siesta:
siesta: The following are some of the parameters of the simulation.
siesta: A complete list of the parameters used, including default values,
siesta: can be found in file out.fdf
siesta:
redata: Spin configuration                          = none
redata: Number of spin components                   = 1
redata: Time-Reversal Symmetry                      = T
redata: Spin spiral                                 = F
redata: Long output                                 =   F
redata: Number of Atomic Species                    =        2
redata: Charge density info will appear in .RHO file
redata: Write Mulliken Pop.                         = NO
redata: Matel table size (NRTAB)                    =     1024
redata: Mesh Cutoff                                 =    50.0000 Ry
redata: Net charge of the system                    =     0.0000 |e|
redata: Min. number of SCF Iter                     =        0
redata: Max. number of SCF Iter                     =      300
redata: SCF convergence failure will abort job
redata: SCF mix quantity                            = Hamiltonian
redata: Mix DM or H after convergence               =   F
redata: Recompute H after scf cycle                 =   F
redata: Mix DM in first SCF step                    =   T
redata: Write Pulay info on disk                    =   F
redata: New DM Occupancy tolerance                  = 0.000000000001
redata: No kicks to SCF
redata: DM Mixing Weight for Kicks                  =     0.5000
redata: Require Harris convergence for SCF          =   F
redata: Harris energy tolerance for SCF             =     0.000100 eV
redata: Require DM convergence for SCF              =   T
redata: DM tolerance for SCF                        =     0.000100
redata: Require EDM convergence for SCF             =   F
redata: EDM tolerance for SCF                       =     0.001000 eV
redata: Require H convergence for SCF               =   T
redata: Hamiltonian tolerance for SCF               =     0.001000 eV
redata: Require (free) Energy convergence for SCF   =   F
redata: (free) Energy tolerance for SCF             =     0.000100 eV
redata: Using DFT-D3 dispersion                     =   F
redata: Using Saved Data (generic)                  =   F
redata: Use continuation files for DM               =   T
redata: Neglect nonoverlap interactions             =   F
redata: Method of Calculation                       = Diagonalization
redata: Electronic Temperature                      =   299.9863 K
redata: Fix the spin of the system                  =   F
redata: Max. number of TDED Iter                    =        1
redata: Number of TDED substeps                     =        3
mix.SCF: Pulay mixing                            = Pulay
mix.SCF:    Variant                              = stable
mix.SCF:    History steps                        = 6
mix.SCF:    Linear mixing weight                 =     0.150000
mix.SCF:    Mixing weight                        =     0.150000
mix.SCF:    SVD condition                        = 0.1000E-07
redata: Save all siesta data in one NC              =   F
redata: ***********************************************************************

%block SCF.Mixers
  Pulay
%endblock SCF.Mixers

%block SCF.Mixer.Pulay
  # Mixing method
  method pulay
  variant stable

  # Mixing options
  weight 0.1500
  weight.linear 0.1500
  history 6
%endblock SCF.Mixer.Pulay

Size of DM history Fstack: 1
Total number of electrons:    30.000000
Total ionic charge:    30.000000

* ProcessorY, Blocksize:    2  28


* Orbital distribution balance (max,min):    28    24


siesta: k-grid: Number of k-points = 1
siesta: k-point is Gamma-only

diag: Algorithm                                     = D&C
diag: Parallel over k                               =   F
diag: Use parallel 2D distribution                  =   T
diag: Parallel block-size                           = 28
diag: Parallel distribution                         =     2 x     2
diag: Used triangular part                          = Lower
diag: Absolute tolerance                            =  0.100E-15
diag: Orthogonalization factor                      =  0.100E-05
diag: Memory factor                                 =  1.0000


ts: **************************************************************
ts: Save H and S matrices                           =    F
ts: Save DM and EDM matrices                        =    F
ts: Only save the overlap matrix S                  =    F
ts: **************************************************************

************************ Begin: TS CHECKS AND WARNINGS ************************
************************ End: TS CHECKS AND WARNINGS **************************

QM/MM cell and QM coordinates received (Bohr).
Cell (Bohr) =
   28.112594    0.000000    0.000000
    0.000000   29.412726    0.000000
    0.000000    0.000000   20.000000
QM Coordinates (Bohr) =
   25.828777    0.384476    8.345892
    0.042435    1.673269    8.345892
    2.346011    0.329674    8.345892
   25.862792   27.138357    8.345892
    0.059443   25.804210    8.345892
    2.451836   27.047650    8.345892
   24.020309    1.435163    8.345892
   24.067552   26.063103    8.345892
   27.977395   23.725511    8.345892
    0.085899    3.765196    8.345892
    4.056214    1.529650    8.345892
    4.272972   25.987868    8.345892

                     ====================================
                        QMMM coord. step =      0
                     ====================================

outcoor: Atomic coordinates (Ang):                          
   13.66800000    0.20345578    4.41645578   2       1  C
    0.02245578    0.88545578    4.41645578   2       2  C
    1.24145578    0.17445578    4.41645578   2       3  C
   13.68600000   14.36100000    4.41645578   2       4  C
    0.03145578   13.65500000    4.41645578   2       5  C
    1.29745578   14.31300000    4.41645578   2       6  C
   12.71100000    0.75945578    4.41645578   1       7  H
   12.73600000   13.79200000    4.41645578   1       8  H
   14.80500000   12.55500000    4.41645578   1       9  H
    0.04545578    1.99245578    4.41645578   1      10  H
    2.14645578    0.80945578    4.41645578   1      11  H
    2.26115923   13.75218776    4.41645578   1      12  H

outcell: Unit cell vectors (Ang):
       14.876544    0.000000    0.000000
        0.000000   15.564544    0.000000
        0.000000    0.000000   10.583544

outcell: Cell vector modules (Ang)   :   14.876544   15.564544   10.583544
outcell: Cell angles (23,13,12) (deg):     90.0000     90.0000     90.0000
outcell: Cell volume (Ang**3)        :   2450.5840
<dSpData1D:S at geom step 0
  <sparsity:sparsity for geom step 0
    nrows_g=108 nrows=28 sparsity=.2593 nnzs=3024, refcount: 7>
  <dData1D:(new from dSpData1D) n=3024, refcount: 1>
refcount: 1>
new_DM -- step:     1
Initializing Density Matrix...

Attempting to read DM from file... Failed...
DM filled with atomic data:
<dSpData2D:DM initialized from atoms
  <sparsity:sparsity for geom step 0
    nrows_g=108 nrows=28 sparsity=.2593 nnzs=3024, refcount: 8>
  <dData2D:DM n=3024 m=1, refcount: 1>
refcount: 1>
No. of atoms with KB's overlaping orbs in proc 0. Max # of overlaps:      12     100

InitMesh: MESH = 64 x 72 x 48 = 221184
InitMesh: Mesh cutoff (required, used) =    50.000    51.151 Ry
New grid distribution [1]: sub = 2
New grid distribution [2]: sub = 2
New grid distribution [3]: sub = 2
Setting up quadratic distribution...

stepf: Fermi-Dirac step function

siesta: Program's energy decomposition (eV):
siesta: Ebs     =      -284.260111
siesta: Eions   =      1613.717781
siesta: Ena     =       337.579733
siesta: Ekin    =       771.891174
siesta: Enl     =      -127.289442
siesta: Eso     =         0.000000
siesta: Edftu   =         0.000000
siesta: DEna    =       -56.219753
siesta: DUscf   =         7.355179
siesta: DUext   =         0.000000
siesta: Ex      =      -297.692135
siesta: Ec      =       -43.831571
siesta: Exc     =      -341.523706
siesta: EbV     =         0.000000
siesta: eta*DQ  =         0.000000
siesta: Emadel  =         0.000000
siesta: Emeta   =         0.000000
siesta: Emolmec =         0.000000
siesta: Ekinion =         0.000000
siesta: Eharris =     -1029.733733
siesta: Etot    =     -1021.924596
siesta: FreeEng =     -1021.924596

        iscf     Eharris(eV)        E_KS(eV)     FreeEng(eV)     dDmax    Ef(eV) dHmax(eV)
   scf:    1    -1029.733733    -1021.924596    -1021.924596  1.946566 -5.253715  6.725271
timer: Routine,Calls,Time,% = IterSCF        1       0.015   2.00
   scf:    2    -1023.769252    -1022.896152    -1022.896152  0.042415 -4.369011  4.736120
   scf:    3    -1024.111532    -1023.796092    -1023.796092  0.099407 -2.209663  0.859724
   scf:    4    -1023.873903    -1023.851165    -1023.851165  0.010683 -2.313085  0.480578
   scf:    5    -1023.848921    -1023.854528    -1023.854528  0.015243 -1.994355  0.235757
   scf:    6    -1023.840201    -1023.853625    -1023.853625  0.010835 -2.220792  0.342047
   scf:    7    -1023.863533    -1023.859507    -1023.859507  0.004368 -2.109327  0.102192
   scf:    8    -1023.860336    -1023.859983    -1023.859983  0.000928 -2.085243  0.047291
   scf:    9    -1023.860142    -1023.860094    -1023.860094  0.000882 -2.063140  0.001030
   scf:   10    -1023.860095    -1023.860094    -1023.860094  0.000017 -2.063053  0.000820

SCF Convergence by DM+H criterion
max |DM_out - DM_in|         :     0.0000172584
max |H_out - H_in|      (eV) :     0.0008202820
SCF cycle converged after 10 iterations

Using DM_out to compute the final energy and forces
No. of atoms with KB's overlaping orbs in proc 0. Max # of overlaps:      12     100

siesta: E_KS(eV) =            -1023.8601

siesta: E_KS - E_eggbox =     -1023.8601

siesta: Atomic forces (eV/Ang):
     1    0.832088   -0.353491   -0.011481
     2   -0.145837   -0.778156   -0.012464
     3   -0.406848   -0.408846   -0.010929
     4    0.713510    0.364806   -0.011331
     5    0.136533    0.404589   -0.011864
     6   -1.546590    0.889388   -0.011483
     7    0.028971   -0.030895    0.000195
     8    0.034212    0.020293   -0.001466
     9    0.347156   -0.135488    0.001135
    10    0.000406   -0.030480   -0.000657
    11    0.279206   -0.264046    0.000506
    12   -0.318328    0.184441    0.001060
----------------------------------------
   Tot   -0.045521   -0.137886   -0.068779
----------------------------------------
   Max    1.546590
   Res    0.415374    sqrt( Sum f_i^2 / 3N )
----------------------------------------
   Max    1.546590    constrained

Stress tensor Voigt[x,y,z,yz,xz,xy] (kbar):        2.76        2.39       -0.09        0.00       -0.00       -0.33
(Free)E + p*V (eV/cell)    -1026.4342
Target enthalpy (eV/cell)    -1023.8601
QM/MM cell and QM coordinates received (Bohr).
Cell (Bohr) =
   28.112594    0.000000    0.000000
    0.000000   29.412726    0.000000
    0.000000    0.000000   20.000000
QM Coordinates (Bohr) =
   25.875238    0.364726    8.345252
    0.034419    1.629794    8.345197
    2.331039    0.307174    8.345282
   25.902705   27.158637    8.345260
    0.070468   25.820214    8.345230
    2.322031   27.119399    8.345265
   24.021927    1.433438    8.345903
   24.069471   26.064229    8.345810
   27.981331   23.726717    8.345955
    0.085933    3.763486    8.345855
    4.056635    1.523947    8.345920
    4.418739   25.907610    8.345811

                     ====================================
                        QMMM coord. step =      1
                     ====================================

outcoor: Atomic coordinates (Ang):                          
   13.69258629    0.19300468    4.41611694   2       1  C
    0.01821372    0.86244962    4.41608791   2       2  C
    1.23353289    0.16254935    4.41613323   2       3  C
   13.70712107   14.37173187    4.41612135   2       4  C
    0.03729016   13.66346893    4.41610561   2       5  C
    1.22876594   14.35096775    4.41612406   2       6  C
   12.71185629    0.75854249    4.41646152   1       7  H
   12.73701574   13.79259579    4.41641250   1       8  H
   14.80708249   12.55563797    4.41648929   1       9  H
    0.04547402    1.99155119    4.41643639   1      10  H
    2.14667886    0.80643826    4.41647072   1      11  H
    2.33829604   13.70971657    4.41641306   1      12  H

outcell: Unit cell vectors (Ang):
       14.876544    0.000000    0.000000
        0.000000   15.564544    0.000000
        0.000000    0.000000   10.583544

outcell: Cell vector modules (Ang)   :   14.876544   15.564544   10.583544
outcell: Cell angles (23,13,12) (deg):     90.0000     90.0000     90.0000
outcell: Cell volume (Ang**3)        :   2450.5840
<dSpData1D:S at geom step 1
  <sparsity:sparsity for geom step 1
    nrows_g=108 nrows=28 sparsity=.2593 nnzs=3024, refcount: 7>
  <dData1D:(new from dSpData1D) n=3024, refcount: 1>
refcount: 1>
new_DM -- step:     2
Re-using DM from previous geometries...
Number of DMs in history: 1
 DM extrapolation coefficients: 
1   1.00000
New DM after history re-use:
<dSpData2D:SpM extrapolated using coords
  <sparsity:sparsity for geom step 1
    nrows_g=108 nrows=28 sparsity=.2593 nnzs=3024, refcount: 9>
  <dData2D:(temp array for extrapolation) n=3024 m=1, refcount: 1>
refcount: 1>
No. of atoms with KB's overlaping orbs in proc 0. Max # of overlaps:      12     100

InitMesh: MESH = 64 x 72 x 48 = 221184
InitMesh: Mesh cutoff (required, used) =    50.000    51.151 Ry
New grid distribution [1]: sub = 2
New grid distribution [2]: sub = 2
New grid distribution [3]: sub = 2
Setting up quadratic distribution...

        iscf     Eharris(eV)        E_KS(eV)     FreeEng(eV)     dDmax    Ef(eV) dHmax(eV)
   scf:    1    -1022.650757    -1023.363436    -1023.363436  0.075410 -1.496969  1.530395
   scf:    2    -1021.907639    -1023.020394    -1023.020394  0.089676 -2.482544  2.659206
   scf:    3    -1023.695055    -1023.519711    -1023.519711  0.057505 -1.845919  0.205881
   scf:    4    -1023.523166    -1023.521807    -1023.521807  0.001867 -1.860398  0.123917
   scf:    5    -1023.522330    -1023.522194    -1023.522194  0.002112 -1.868914  0.026690
   scf:    6    -1023.522252    -1023.522257    -1023.522257  0.000872 -1.857444  0.011204
   scf:    7    -1023.522272    -1023.522266    -1023.522266  0.000303 -1.859483  0.003832
   scf:    8    -1023.522269    -1023.522268    -1023.522268  0.000246 -1.860746  0.001340
   scf:    9    -1023.522268    -1023.522268    -1023.522268  0.000040 -1.861180  0.000479

SCF Convergence by DM+H criterion
max |DM_out - DM_in|         :     0.0000403936
max |H_out - H_in|      (eV) :     0.0004790758
SCF cycle converged after 9 iterations

Using DM_out to compute the final energy and forces
No. of atoms with KB's overlaping orbs in proc 0. Max # of overlaps:      12     100

siesta: E_KS(eV) =            -1023.5223

siesta: Atomic forces (eV/Ang):
     1   -1.142843    0.367212   -0.011211
     2    0.686798    1.152942   -0.010750
     3   -0.227981    1.537025   -0.010607
     4   -0.696859   -0.823624   -0.010302
     5   -1.459320   -0.660361   -0.010648
     6    3.822119   -2.256093   -0.009826
     7    0.697700   -0.408830   -0.000546
     8    0.592759    0.389351   -0.001924
     9    0.464592    0.168152    0.000440
    10   -0.054712   -0.687185   -0.001361
    11   -0.023620   -0.581712   -0.000075
    12   -3.077629    1.796519   -0.000286
----------------------------------------
   Tot   -0.418996   -0.006604   -0.067095
----------------------------------------
   Max    3.822119
   Res    1.105537    sqrt( Sum f_i^2 / 3N )
----------------------------------------
   Max    3.822119    constrained

Stress tensor Voigt[x,y,z,yz,xz,xy] (kbar):        1.93        0.44       -0.10       -0.00        0.00       -1.70
(Free)E + p*V (eV/cell)    -1024.6788
Target enthalpy (eV/cell)    -1023.5223
QM/MM cell and QM coordinates received (Bohr).
Cell (Bohr) =
   28.112594    0.000000    0.000000
    0.000000   29.412726    0.000000
    0.000000    0.000000   20.000000
QM Coordinates (Bohr) =
   25.842049    0.378834    8.345709
    0.040145    1.660850    8.345693
    2.341734    0.323246    8.345718
   25.874193   27.144150    8.345711
    0.062592   25.808782    8.345703
    2.414756   27.068146    8.345713
   24.020771    1.434670    8.345895
   24.068100   26.063424    8.345869
   27.978519   23.725856    8.345910
    0.085909    3.764707    8.345881
    4.056334    1.528021    8.345900
    4.314574   25.964878    8.345863

                     ====================================
                        QMMM coord. step =      2
                     ====================================

outcoor: Atomic coordinates (Ang):                          
   13.67502337    0.20047030    4.41635899   2       1  C
    0.02124398    0.87888379    4.41635070   2       2  C
    1.23919251    0.17105456    4.41636364   2       3  C
   13.69203349   14.36406569    4.41636025   2       4  C
    0.03312244   13.65741926    4.41635575   2       5  C
    1.27783368   14.32384595    4.41636102   2       6  C
   12.71124461    0.75919489    4.41645742   1       7  H
   12.73629016   13.79217019    4.41644342   1       8  H
   14.80559489   12.55518225    4.41646535   1       9  H
    0.04546099    1.99219737    4.41645024   1      10  H
    2.14651951    0.80859379    4.41646005   1      11  H
    2.28317404   13.74002177    4.41644061   1      12  H

outcell: Unit cell vectors (Ang):
       14.876544    0.000000    0.000000
        0.000000   15.564544    0.000000
        0.000000    0.000000   10.583544

outcell: Cell vector modules (Ang)   :   14.876544   15.564544   10.583544
outcell: Cell angles (23,13,12) (deg):     90.0000     90.0000     90.0000
outcell: Cell volume (Ang**3)        :   2450.5840
<dSpData1D:S at geom step 2
  <sparsity:sparsity for geom step 2
    nrows_g=108 nrows=28 sparsity=.2593 nnzs=3024, refcount: 7>
  <dData1D:(new from dSpData1D) n=3024, refcount: 1>
refcount: 1>
new_DM -- step:     3
Re-using DM from previous geometries...
Number of DMs in history: 1
 DM extrapolation coefficients: 
1   1.00000
New DM after history re-use:
<dSpData2D:SpM extrapolated using coords
  <sparsity:sparsity for geom step 2
    nrows_g=108 nrows=28 sparsity=.2593 nnzs=3024, refcount: 9>
  <dData2D:(temp array for extrapolation) n=3024 m=1, refcount: 1>
refcount: 1>
No. of atoms with KB's overlaping orbs in proc 0. Max # of overlaps:      12     100

InitMesh: MESH = 64 x 72 x 48 = 221184
InitMesh: Mesh cutoff (required, used) =    50.000    51.151 Ry
New grid distribution [1]: sub = 2
New grid distribution [2]: sub = 2
New grid distribution [3]: sub = 2
Setting up quadratic distribution...

        iscf     Eharris(eV)        E_KS(eV)     FreeEng(eV)     dDmax    Ef(eV) dHmax(eV)
   scf:    1    -1023.870368    -1023.781954    -1023.781954  0.050945 -2.280634  1.122822
   scf:    2    -1022.940264    -1023.577129    -1023.577129  0.072247 -1.613142  1.869250
   scf:    3    -1023.958429    -1023.862309    -1023.862309  0.047008 -2.023144  0.158773
   scf:    4    -1023.864474    -1023.863635    -1023.863635  0.001623 -2.001306  0.080817
   scf:    5    -1023.863961    -1023.863853    -1023.863853  0.001011 -2.008136  0.030913
   scf:    6    -1023.863875    -1023.863878    -1023.863878  0.000569 -2.002196  0.007689
   scf:    7    -1023.863885    -1023.863884    -1023.863884  0.000212 -2.005305  0.003634
   scf:    8    -1023.863886    -1023.863885    -1023.863885  0.000173 -2.004201  0.000494
   scf:    9    -1023.863885    -1023.863885    -1023.863885  0.000014 -2.004084  0.000332

SCF Convergence by DM+H criterion
max |DM_out - DM_in|         :     0.0000139767
max |H_out - H_in|      (eV) :     0.0003322556
SCF cycle converged after 9 iterations

Using DM_out to compute the final energy and forces
No. of atoms with KB's overlaping orbs in proc 0. Max # of overlaps:      12     100

siesta: E_KS(eV) =            -1023.8639

siesta: Atomic forces (eV/Ang):
     1    0.286240   -0.140604   -0.011507
     2    0.074680   -0.233917   -0.012079
     3   -0.372113    0.105067   -0.010836
     4    0.312054    0.028415   -0.011056
     5   -0.292186    0.136950   -0.011542
     6    0.267851   -0.191058   -0.010932
     7    0.230228   -0.145202    0.000031
     8    0.201597    0.131043   -0.001563
     9    0.381285   -0.047744    0.000947
    10   -0.015461   -0.227592   -0.000818
    11    0.191066   -0.356727    0.000366
    12   -1.419667    0.834215    0.000791
----------------------------------------
   Tot   -0.154424   -0.107154   -0.068198
----------------------------------------
   Max    1.419667
   Res    0.326155    sqrt( Sum f_i^2 / 3N )
----------------------------------------
   Max    1.419667    constrained

Stress tensor Voigt[x,y,z,yz,xz,xy] (kbar):        2.72        1.95       -0.09        0.00        0.00       -0.77
(Free)E + p*V (eV/cell)    -1026.1968
Target enthalpy (eV/cell)    -1023.8639
QM/MM cell and QM coordinates received (Bohr).
Cell (Bohr) =
   28.112594    0.000000    0.000000
    0.000000   29.412726    0.000000
    0.000000    0.000000   20.000000
QM Coordinates (Bohr) =
   25.861139    0.370069    8.345190
    0.041141    1.644123    8.345143
    2.329418    0.322381    8.345228
   25.892883   27.149151    8.345209
    0.056440   25.813752    8.345178
    2.389767   27.080709    8.345220
   24.028914    1.429392    8.345898
   24.075337   26.068096    8.345799
   27.982786   23.729857    8.345955
    0.085398    3.756631    8.345846
    4.053600    1.520304    8.345918
    4.296961   25.972836    8.345782

                     ====================================
                        QMMM coord. step =      3
                     ====================================

outcoor: Atomic coordinates (Ang):                          
   13.68512552    0.19583217    4.41608414   2       1  C
    0.02177092    0.87003236    4.41605973   2       2  C
    1.23267474    0.17059686    4.41610426   2       3  C
   13.70192382   14.36671208    4.41609439   2       4  C
    0.02986656   13.66004940    4.41607813   2       5  C
    1.26461013   14.33049394    4.41610005   2       6  C
   12.71555378    0.75640171    4.41645913   1       7  H
   12.74011991   13.79464237    4.41640663   1       8  H
   14.80785259   12.55729947    4.41648913   1       9  H
    0.04519070    1.98792356    4.41643164   1      10  H
    2.14507258    0.80451004    4.41646964   1      11  H
    2.27385376   13.74423271    4.41639750   1      12  H

outcell: Unit cell vectors (Ang):
       14.876544    0.000000    0.000000
        0.000000   15.564544    0.000000
        0.000000    0.000000   10.583544

outcell: Cell vector modules (Ang)   :   14.876544   15.564544   10.583544
outcell: Cell angles (23,13,12) (deg):     90.0000     90.0000     90.0000
outcell: Cell volume (Ang**3)        :   2450.5840
<dSpData1D:S at geom step 3
  <sparsity:sparsity for geom step 3
    nrows_g=108 nrows=28 sparsity=.2593 nnzs=3024, refcount: 7>
  <dData1D:(new from dSpData1D) n=3024, refcount: 1>
refcount: 1>
new_DM -- step:     4
Re-using DM from previous geometries...
Number of DMs in history: 1
 DM extrapolation coefficients: 
1   1.00000
New DM after history re-use:
<dSpData2D:SpM extrapolated using coords
  <sparsity:sparsity for geom step 3
    nrows_g=108 nrows=28 sparsity=.2593 nnzs=3024, refcount: 9>
  <dData2D:(temp array for extrapolation) n=3024 m=1, refcount: 1>
refcount: 1>
Note: For starting DM, Qtot, Tr[D*S] =         30.00000000         30.04054637
No. of atoms with KB's overlaping orbs in proc 0. Max # of overlaps:      12     100

InitMesh: MESH = 64 x 72 x 48 = 221184
InitMesh: Mesh cutoff (required, used) =    50.000    51.151 Ry
New grid distribution [1]: sub = 2
New grid distribution [2]: sub = 2
New grid distribution [3]: sub = 2
Setting up quadratic distribution...

        iscf     Eharris(eV)        E_KS(eV)     FreeEng(eV)     dDmax    Ef(eV) dHmax(eV)
   scf:    1    -1023.665222    -1023.877029    -1023.877029  0.007669 -1.868182  0.157708
   scf:    2    -1023.864122    -1023.874472    -1023.874472  0.005408 -1.996418  0.286768
   scf:    3    -1023.880971    -1023.879219    -1023.879219  0.003473 -1.917263  0.016590
   scf:    4    -1023.879285    -1023.879258    -1023.879258  0.000424 -1.915927  0.006338
   scf:    5    -1023.879264    -1023.879262    -1023.879262  0.000185 -1.915311  0.001475
   scf:    6    -1023.879262    -1023.879262    -1023.879262  0.000061 -1.914810  0.000981

SCF Convergence by DM+H criterion
max |DM_out - DM_in|         :     0.0000614198
max |H_out - H_in|      (eV) :     0.0009814512
SCF cycle converged after 6 iterations

Using DM_out to compute the final energy and forces
No. of atoms with KB's overlaping orbs in proc 0. Max # of overlaps:      12     100

siesta: E_KS(eV) =            -1023.8793

siesta: Atomic forces (eV/Ang):
     1   -0.315783    0.081571   -0.010861
     2    0.108895    0.455523   -0.010871
     3    0.002225    0.162745   -0.010260
     4   -0.360079   -0.226329   -0.010389
     5   -0.122020   -0.133917   -0.010528
     6    0.720381   -0.488229   -0.009831
     7    0.387697   -0.237447   -0.000562
     8    0.325913    0.216275   -0.002033
     9    0.366403   -0.036939    0.000539
    10   -0.028328   -0.356819   -0.001321
    11    0.122352   -0.390476   -0.000025
    12   -1.503866    0.883626    0.000266
----------------------------------------
   Tot   -0.296210   -0.070415   -0.065876
----------------------------------------
   Max    1.503866
   Res    0.378490    sqrt( Sum f_i^2 / 3N )
----------------------------------------
   Max    1.503866    constrained

Stress tensor Voigt[x,y,z,yz,xz,xy] (kbar):        1.63        1.17       -0.10       -0.00        0.00       -0.64
(Free)E + p*V (eV/cell)    -1025.2587
Target enthalpy (eV/cell)    -1023.8793
QM/MM cell and QM coordinates received (Bohr).
Cell (Bohr) =
   28.112594    0.000000    0.000000
    0.000000   29.412726    0.000000
    0.000000    0.000000   20.000000
QM Coordinates (Bohr) =
   25.853139    0.373742    8.345407
    0.040724    1.651132    8.345374
    2.334579    0.322744    8.345433
   25.885051   27.147055    8.345419
    0.059018   25.811669    8.345398
    2.400239   27.075444    8.345426
   24.025502    1.431604    8.345897
   24.072305   26.066138    8.345828
   27.980998   23.728180    8.345936
    0.085612    3.760016    8.345861
    4.054746    1.523538    8.345910
    4.304342   25.969501    8.345816

                     ====================================
                        QMMM coord. step =      4
                     ====================================

outcoor: Atomic coordinates (Ang):                          
   13.68089207    0.19777584    4.41619932   2       1  C
    0.02155010    0.87374168    4.41618167   2       2  C
    1.23540611    0.17078867    4.41621296   2       3  C
   13.69777914   14.36560307    4.41620580   2       4  C
    0.03123099   13.65894720    4.41619447   2       5  C
    1.27015165   14.32770800    4.41620941   2       6  C
   12.71374796    0.75757223    4.41645841   1       7  H
   12.73851500   13.79360637    4.41642205   1       8  H
   14.80690647   12.55641222    4.41647917   1       9  H
    0.04530397    1.98971456    4.41643944   1      10  H
    2.14567894    0.80622139    4.41646562   1      11  H
    2.27775958   13.74246810    4.41641549   1      12  H

outcell: Unit cell vectors (Ang):
       14.876544    0.000000    0.000000
        0.000000   15.564544    0.000000
        0.000000    0.000000   10.583544

outcell: Cell vector modules (Ang)   :   14.876544   15.564544   10.583544
outcell: Cell angles (23,13,12) (deg):     90.0000     90.0000     90.0000
outcell: Cell volume (Ang**3)        :   2450.5840
<dSpData1D:S at geom step 4
  <sparsity:sparsity for geom step 4
    nrows_g=108 nrows=28 sparsity=.2593 nnzs=3024, refcount: 7>
  <dData1D:(new from dSpData1D) n=3024, refcount: 1>
refcount: 1>
new_DM -- step:     5
Re-using DM from previous geometries...
Number of DMs in history: 1
 DM extrapolation coefficients: 
1   1.00000
New DM after history re-use:
<dSpData2D:SpM extrapolated using coords
  <sparsity:sparsity for geom step 4
    nrows_g=108 nrows=28 sparsity=.2593 nnzs=3024, refcount: 9>
  <dData2D:(temp array for extrapolation) n=3024 m=1, refcount: 1>
refcount: 1>
No. of atoms with KB's overlaping orbs in proc 0. Max # of overlaps:      12     100

InitMesh: MESH = 64 x 72 x 48 = 221184
InitMesh: Mesh cutoff (required, used) =    50.000    51.151 Ry
New grid distribution [1]: sub = 2
New grid distribution [2]: sub = 2
New grid distribution [3]: sub = 2
Setting up quadratic distribution...

        iscf     Eharris(eV)        E_KS(eV)     FreeEng(eV)     dDmax    Ef(eV) dHmax(eV)
   scf:    1    -1023.963023    -1023.875882    -1023.875882  0.003230 -1.972856  0.067702
   scf:    2    -1023.873593    -1023.875488    -1023.875488  0.002343 -1.918453  0.123598
   scf:    3    -1023.876621    -1023.876302    -1023.876302  0.001509 -1.951933  0.007044
   scf:    4    -1023.876314    -1023.876309    -1023.876309  0.000172 -1.952353  0.002806
   scf:    5    -1023.876310    -1023.876309    -1023.876309  0.000086 -1.952796  0.000669

SCF Convergence by DM+H criterion
max |DM_out - DM_in|         :     0.0000856931
max |H_out - H_in|      (eV) :     0.0006694947
SCF cycle converged after 5 iterations

Using DM_out to compute the final energy and forces
No. of atoms with KB's overlaping orbs in proc 0. Max # of overlaps:      12     100

siesta: E_KS(eV) =            -1023.8763

siesta: Atomic forces (eV/Ang):
     1   -0.060910   -0.010546   -0.011145
     2    0.094274    0.164718   -0.011380
     3   -0.157681    0.138718   -0.010466
     4   -0.075422   -0.120651   -0.010642
     5   -0.195453   -0.018045   -0.010953
     6    0.530103   -0.363489   -0.010242
     7    0.322172   -0.199171   -0.000298
     8    0.274127    0.180845   -0.001830
     9    0.372609   -0.042048    0.000716
    10   -0.022985   -0.302815   -0.001098
    11    0.151543   -0.376149    0.000140
    12   -1.468932    0.863070    0.000501
----------------------------------------
   Tot   -0.236556   -0.085563   -0.066696
----------------------------------------
   Max    1.468932
   Res    0.337795    sqrt( Sum f_i^2 / 3N )
----------------------------------------
   Max    1.468932    constrained

Stress tensor Voigt[x,y,z,yz,xz,xy] (kbar):        2.09        1.50       -0.09        0.00        0.00       -0.70
(Free)E + p*V (eV/cell)    -1025.6578
Target enthalpy (eV/cell)    -1023.8763

outcoor: Final (unrelaxed) atomic coordinates (Ang):        
   13.68089207    0.19777584    4.41619932   2       1  C
    0.02155010    0.87374168    4.41618167   2       2  C
    1.23540611    0.17078867    4.41621296   2       3  C
   13.69777914   14.36560307    4.41620580   2       4  C
    0.03123099   13.65894720    4.41619447   2       5  C
    1.27015165   14.32770800    4.41620941   2       6  C
   12.71374796    0.75757223    4.41645841   1       7  H
   12.73851500   13.79360637    4.41642205   1       8  H
   14.80690647   12.55641222    4.41647917   1       9  H
    0.04530397    1.98971456    4.41643944   1      10  H
    2.14567894    0.80622139    4.41646562   1      11  H
    2.27775958   13.74246810    4.41641549   1      12  H

coxmol: Writing XMOL coordinates into file linkatom.siesta.xyz                                                                                                                                                                                                                 

siesta: Program's energy decomposition (eV):
siesta: Ebs     =      -354.397515
siesta: Eions   =      1613.717781
siesta: Ena     =       336.829240
siesta: Ekin    =       734.255438
siesta: Enl     =      -119.163500
siesta: Eso     =         0.000000
siesta: Edftu   =         0.000000
siesta: DEna    =       -31.875055
siesta: DUscf   =         3.545395
siesta: DUext   =         0.000000
siesta: Ex      =      -290.377496
siesta: Ec      =       -43.372550
siesta: Exc     =      -333.750046
siesta: EbV     =         0.000000
siesta: eta*DQ  =         0.000000
siesta: Emadel  =         0.000000
siesta: Emeta   =         0.000000
siesta: Emolmec =         0.000000
siesta: Ekinion =         0.000000
siesta: Eharris =     -1023.876310
siesta: Etot    =     -1023.876309
siesta: FreeEng =     -1023.876309

siesta: Final energy (eV):
siesta:  Band Struct. =    -354.397515
siesta:       Kinetic =     734.255438
siesta:       Hartree =    2270.865484
siesta:         Edftu =       0.000000
siesta:       Eso     =       0.000000
siesta:    Ext. field =       0.000000
siesta:         Exch. =    -290.377496
siesta:         Corr. =     -43.372550
siesta:     Bulk bias =       0.000000
siesta:   Exch.-corr. =    -333.750046
siesta:  Ion-electron =   -5194.154487
siesta:       Ion-ion =    1498.907302
siesta:       Ekinion =       0.000000
siesta: D3 dispersion =       0.000000
siesta:         Total =   -1023.876309
siesta:         Fermi =      -1.952796

siesta: Atomic forces (eV/Ang):
siesta:      1   -0.060910   -0.010546   -0.011145
siesta:      2    0.094274    0.164718   -0.011380
siesta:      3   -0.157681    0.138718   -0.010466
siesta:      4   -0.075422   -0.120651   -0.010642
siesta:      5   -0.195453   -0.018045   -0.010953
siesta:      6    0.530103   -0.363489   -0.010242
siesta:      7    0.322172   -0.199171   -0.000298
siesta:      8    0.274127    0.180845   -0.001830
siesta:      9    0.372609   -0.042048    0.000716
siesta:     10   -0.022985   -0.302815   -0.001098
siesta:     11    0.151543   -0.376149    0.000140
siesta:     12   -1.468932    0.863070    0.000501
siesta: ----------------------------------------
siesta:    Tot   -0.236556   -0.085563   -0.066696

siesta: Stress tensor (static) (eV/Ang**3):
siesta:     0.001303   -0.000436    0.000000
siesta:    -0.000436    0.000938    0.000000
siesta:     0.000000    0.000000   -0.000059

siesta: Cell volume =       2450.584000 Ang**3

siesta: Pressure (static):
siesta:                Solid            Molecule  Units
siesta:          -0.00000792         -0.00003241  Ry/Bohr**3
siesta:          -0.00072697         -0.00297593  eV/Ang**3
siesta:          -1.16473340         -4.76796879  kBar
(Free)E+ p_basis*V_orbitals  =       -1020.019527
(Free)Eharris+ p_basis*V_orbitals  =       -1020.019528

siesta: Electric dipole (a.u.)  =    0.000000    0.000000    0.000293
siesta: Electric dipole (Debye) =    0.000000    0.000000    0.000745

cite: Please see "linkatom.siesta.bib" for an exhaustive BiBTeX file.
cite: Please clearly indicate Siesta version in published work: 5.0.0-alpha-245-g39f7491dd-dirty
cite: This calculation has made use of the following articles
cite: which are encouraged to be cited in a published work.
        Primary SIESTA paper
          DOI: www.doi.org/10.1088/0953-8984/14/11/302


 QMMM - closing pipes.

>> End of run:  28-AUG-2024  12:34:17
Job completed
